<?xml version="1.0" encoding="ISO-8859-1"?>
<modeling>
 <generator>
  <i name="program" type="string">vasp </i>
  <i name="version" type="string">5.3.5  </i>
  <i name="subversion" type="string">31Mar14 (build Aug 29 2014 19:41:47) complex                          parallel </i>
  <i name="platform" type="string">LinuxIFC </i>
  <i name="date" type="string">2019 04 11 </i>
  <i name="time" type="string">13:30:15 </i>
 </generator>
 <incar>
  <i type="string" name="SYSTEM"> Fe4OF8_var_6</i>
  <i type="int" name="ISTART">     0</i>
  <i type="string" name="PREC">normal</i>
  <i type="string" name="ALGO"> VeryFast</i>
  <i type="int" name="ISPIN">     1</i>
  <i type="int" name="ICHARG">     2</i>
  <i type="int" name="NELM">   300</i>
  <i type="int" name="ISYM">     0</i>
  <i type="logical" name="LWAVE"> F  </i>
  <i type="int" name="NELM">   300</i>
 </incar>
 <kpoints>
  <generation param="Gamma">
   <v type="int" name="divisions">       1        1        1 </v>
   <v name="usershift">      0.00000000       0.00000000       0.00000000 </v>
   <v name="genvec1">      1.00000000       0.00000000       0.00000000 </v>
   <v name="genvec2">      0.00000000       1.00000000       0.00000000 </v>
   <v name="genvec3">     -0.00000000       0.00000000       1.00000000 </v>
   <v name="shift">      0.00000000       0.00000000       0.00000000 </v>
  </generation>
  <varray name="kpointlist" >
   <v>       0.00000000       0.00000000       0.00000000 </v>
  </varray>
  <varray name="weights" >
   <v>       1.00000000 </v>
  </varray>
 </kpoints>
 <parameters>
  <separator name="general" >
   <i type="string" name="SYSTEM">Fe4OF8_var_6</i>
   <i type="logical" name="LCOMPAT"> F  </i>
  </separator>
  <separator name="electronic" >
   <i type="string" name="PREC">normal</i>
   <i name="ENMAX">    400.00000000</i>
   <i name="ENAUG">    613.61400000</i>
   <i name="EDIFF">      0.00010000</i>
   <i type="int" name="IALGO">    48</i>
   <i type="int" name="IWAVPR">    10</i>
   <i type="int" name="NBANDS">   228</i>
   <i name="NELECT">    376.00000000</i>
   <i type="int" name="TURBO">     0</i>
   <i type="int" name="IRESTART">     0</i>
   <i type="int" name="NREBOOT">     0</i>
   <i type="int" name="NMIN">     0</i>
   <i name="EREF">      0.00000000</i>
   <separator name="electronic smearing" >
    <i type="int" name="ISMEAR">     1</i>
    <i name="SIGMA">      0.20000000</i>
    <i name="KSPACING">      0.50000000</i>
    <i type="logical" name="KGAMMA"> T  </i>
   </separator>
   <separator name="electronic projectors" >
    <i type="logical" name="LREAL"> F  </i>
    <v name="ROPT">      0.00000000      0.00000000      0.00000000</v>
    <i type="int" name="LMAXPAW">  -100</i>
    <i type="int" name="LMAXMIX">     2</i>
    <i type="logical" name="NLSPLINE"> F  </i>
   </separator>
   <separator name="electronic startup" >
    <i type="int" name="ISTART">     0</i>
    <i type="int" name="ICHARG">     2</i>
    <i type="int" name="INIWAV">     1</i>
   </separator>
   <separator name="electronic spin" >
    <i type="int" name="ISPIN">     1</i>
    <i type="logical" name="LNONCOLLINEAR"> F  </i>
    <v name="MAGMOM">      1.00000000      1.00000000      1.00000000      1.00000000      1.00000000      1.00000000      1.00000000      1.00000000      1.00000000      1.00000000      1.00000000      1.00000000      1.00000000      1.00000000      1.00000000      1.00000000      1.00000000      1.00000000      1.00000000      1.00000000
      1.00000000      1.00000000      1.00000000      1.00000000      1.00000000      1.00000000      1.00000000      1.00000000      1.00000000      1.00000000      1.00000000      1.00000000      1.00000000      1.00000000      1.00000000      1.00000000      1.00000000      1.00000000      1.00000000      1.00000000
      1.00000000      1.00000000      1.00000000      1.00000000      1.00000000      1.00000000      1.00000000      1.00000000      1.00000000      1.00000000      1.00000000      1.00000000</v>
    <i name="NUPDOWN">     -1.00000000</i>
    <i type="logical" name="LSORBIT"> F  </i>
    <v name="SAXIS">      0.00000000      0.00000000      1.00000000</v>
    <i type="logical" name="LSPIRAL"> F  </i>
    <v name="QSPIRAL">      0.00000000      0.00000000      0.00000000</v>
    <i type="logical" name="LZEROZ"> F  </i>
   </separator>
   <separator name="electronic exchange-correlation" >
    <i type="logical" name="LASPH"> F  </i>
    <i type="logical" name="LMETAGGA"> F  </i>
   </separator>
   <separator name="electronic convergence" >
    <i type="int" name="NELM">   300</i>
    <i type="int" name="NELMDL">   -12</i>
    <i type="int" name="NELMIN">     2</i>
    <i name="ENINI">    400.00000000</i>
    <separator name="electronic convergence detail" >
     <i type="logical" name="LDIAG"> T  </i>
     <i type="logical" name="LSUBROT"> F  </i>
     <i name="WEIMIN">      0.00000000</i>
     <i name="EBREAK">      0.00000011</i>
     <i name="DEPER">      0.30000000</i>
     <i type="int" name="NRMM">     4</i>
     <i name="TIME">      0.40000000</i>
    </separator>
   </separator>
   <separator name="electronic mixer" >
    <i name="AMIX">      0.40000000</i>
    <i name="BMIX">      1.00000000</i>
    <i name="AMIN">      0.10000000</i>
    <i name="AMIX_MAG">      1.60000000</i>
    <i name="BMIX_MAG">      1.00000000</i>
    <separator name="electronic mixer details" >
     <i type="int" name="IMIX">     4</i>
     <i type="int" name="MAXMIX">   -45</i>
     <i name="WC">    100.00000000</i>
     <i type="int" name="INIMIX">     1</i>
     <i type="int" name="MIXPRE">     1</i>
     <i type="int" name="MREMOVE">     5</i>
    </separator>
   </separator>
   <separator name="electronic dipolcorrection" >
    <i type="logical" name="LDIPOL"> F  </i>
    <i type="logical" name="LMONO"> F  </i>
    <i type="int" name="IDIPOL">     0</i>
    <i name="EPSILON">      1.00000000</i>
    <v name="DIPOL">   -100.00000000   -100.00000000   -100.00000000</v>
    <i name="EFIELD">      0.00000000</i>
   </separator>
  </separator>
  <separator name="grids" >
   <i type="int" name="NGX">    48</i>
   <i type="int" name="NGY">    28</i>
   <i type="int" name="NGZ">    80</i>
   <i type="int" name="NGXF">    96</i>
   <i type="int" name="NGYF">    56</i>
   <i type="int" name="NGZF">   160</i>
   <i type="logical" name="ADDGRID"> F  </i>
  </separator>
  <separator name="ionic" >
   <i type="int" name="NSW">     0</i>
   <i type="int" name="IBRION">    -1</i>
   <i type="int" name="ISIF">     2</i>
   <i name="PSTRESS">      0.00000000</i>
   <i name="EDIFFG">      0.00100000</i>
   <i type="int" name="NFREE">     0</i>
   <i name="POTIM">      0.50000000</i>
   <i name="SMASS">     -3.00000000</i>
   <i name="SCALEE">      1.00000000</i>
  </separator>
  <separator name="ionic md" >
   <i name="TEBEG">      0.00010000</i>
   <i name="TEEND">      0.00010000</i>
   <i type="int" name="NBLOCK">     1</i>
   <i type="int" name="KBLOCK">     1</i>
   <i type="int" name="NPACO">   256</i>
   <i name="APACO">     16.00000000</i>
  </separator>
  <separator name="symmetry" >
   <i type="int" name="ISYM">     0</i>
   <i name="SYMPREC">      0.00001000</i>
  </separator>
  <separator name="dos" >
   <i type="logical" name="LORBIT"> F  </i>
   <v name="RWIGS">     -1.00000000     -1.00000000     -1.00000000</v>
   <i type="int" name="NEDOS">   301</i>
   <i name="EMIN">     10.00000000</i>
   <i name="EMAX">    -10.00000000</i>
   <i name="EFERMI">      0.00000000</i>
  </separator>
  <separator name="writing" >
   <i type="int" name="NWRITE">     2</i>
   <i type="logical" name="LWAVE"> F  </i>
   <i type="logical" name="LCHARG"> T  </i>
   <i type="logical" name="LPARD"> F  </i>
   <i type="logical" name="LVTOT"> F  </i>
   <i type="logical" name="LVHAR"> F  </i>
   <i type="logical" name="LELF"> F  </i>
   <i type="logical" name="LOPTICS"> F  </i>
   <v name="STM">      0.00000000      0.00000000      0.00000000      0.00000000      0.00000000      0.00000000      0.00000000</v>
  </separator>
  <separator name="performance" >
   <i type="int" name="NPAR">     4</i>
   <i type="int" name="NSIM">     4</i>
   <i type="int" name="NBLK">    -1</i>
   <i type="logical" name="LPLANE"> T  </i>
   <i type="logical" name="LSCALAPACK"> T  </i>
   <i type="logical" name="LSCAAWARE"> F  </i>
   <i type="logical" name="LSCALU"> F  </i>
   <i type="logical" name="LASYNC"> F  </i>
   <i type="logical" name="LORBITALREAL"> F  </i>
  </separator>
  <separator name="miscellaneous" >
   <i type="int" name="IDIOT">     3</i>
   <i type="logical" name="LMUSIC"> F  </i>
   <v name="POMASS">     55.84700000     16.00000000     18.99800000</v>
   <v name="DARWINR">      0.00000000      0.00000000      0.00000000</v>
   <v name="DARWINV">      1.00000000      1.00000000      1.00000000</v>
   <i type="logical" name="LCORR"> T  </i>
  </separator>
  <i type="logical" name="GGA_COMPAT"> T  </i>
  <i type="logical" name="LBERRY"> F  </i>
  <i type="int" name="ICORELEVEL">     0</i>
  <i type="logical" name="LDAU"> F  </i>
  <i type="int" name="I_CONSTRAINED_M">     0</i>
  <separator name="electronic exchange-correlation" >
   <i type="string" name="GGA">--</i>
   <i type="int" name="VOSKOWN">     0</i>
   <i type="logical" name="LHFCALC"> F  </i>
   <i type="string" name="PRECFOCK"></i>
   <i type="logical" name="LSYMGRAD"> F  </i>
   <i type="logical" name="LHFONE"> F  </i>
   <i type="logical" name="LRHFCALC"> F  </i>
   <i type="logical" name="LTHOMAS"> F  </i>
   <i type="logical" name="LMODELHF"> F  </i>
   <i name="ENCUT4O">     -1.00000000</i>
   <i type="int" name="EXXOEP">     0</i>
   <i type="int" name="FOURORBIT">     0</i>
   <i name="AEXX">      0.00000000</i>
   <i name="HFALPHA">      0.00000000</i>
   <i name="MCALPHA">      0.00000000</i>
   <i name="ALDAX">      1.00000000</i>
   <i name="AGGAX">      1.00000000</i>
   <i name="ALDAC">      1.00000000</i>
   <i name="AGGAC">      1.00000000</i>
   <i type="int" name="NKREDX">     1</i>
   <i type="int" name="NKREDY">     1</i>
   <i type="int" name="NKREDZ">     1</i>
   <i type="logical" name="SHIFTRED"> F  </i>
   <i type="logical" name="ODDONLY"> F  </i>
   <i type="logical" name="EVENONLY"> F  </i>
   <i type="int" name="LMAXFOCK">     0</i>
   <i type="int" name="NMAXFOCKAE">     0</i>
   <i type="logical" name="LFOCKAEDFT"> F  </i>
   <i name="HFSCREEN">      0.00000000</i>
   <i name="HFSCREENC">      0.00000000</i>
   <i type="int" name="NBANDSGWLOW">     0</i>
  </separator>
  <separator name="vdW DFT" >
   <i type="logical" name="LUSE_VDW"> F  </i>
   <i name="Zab_VDW">     -0.84910000</i>
   <i name="PARAM1">      0.12340000</i>
   <i name="PARAM2">      1.00000000</i>
   <i name="PARAM3">      0.00000000</i>
  </separator>
  <separator name="model GW" >
   <i type="int" name="MODEL_GW">     0</i>
   <i name="MODEL_EPS0">      8.69476215</i>
   <i name="MODEL_ALPHA">      1.00000000</i>
  </separator>
  <separator name="linear response parameters" >
   <i type="logical" name="LEPSILON"> F  </i>
   <i type="logical" name="LRPA"> F  </i>
   <i type="logical" name="LNABLA"> F  </i>
   <i type="logical" name="LVEL"> F  </i>
   <i type="int" name="KINTER">     0</i>
   <i name="CSHIFT">      0.10000000</i>
   <i name="OMEGAMAX">     -1.00000000</i>
   <i name="DEG_THRESHOLD">      0.00200000</i>
  </separator>
  <separator name="orbital magnetization" >
   <i type="logical" name="NUCIND"> F  </i>
   <v name="MAGPOS">      0.00000000      0.00000000      0.00000000</v>
   <i type="logical" name="LNICSALL"> T  </i>
   <i type="logical" name="ORBITALMAG"> F  </i>
   <i type="logical" name="LMAGBLOCH"> F  </i>
   <i type="logical" name="LCHIMAG"> F  </i>
   <i type="logical" name="LGAUGE"> T  </i>
   <i type="int" name="MAGATOM">     0</i>
   <v name="MAGDIPOL">      0.00000000      0.00000000      0.00000000</v>
   <v name="AVECCONST">      0.00000000      0.00000000      0.00000000</v>
  </separator>
  <separator name="response functions" >
   <i type="logical" name="LADDER"> F  </i>
   <i type="logical" name="LFXC"> F  </i>
   <i type="logical" name="LHARTREE"> T  </i>
   <i type="int" name="IBSE">     0</i>
   <i type="logical" name="LTCTE"> F  </i>
   <i type="logical" name="LTETE"> F  </i>
   <i type="logical" name="LTRIPLET"> F  </i>
   <i type="logical" name="LFXCEPS"> F  </i>
   <i type="logical" name="LFXHEG"> F  </i>
   <i type="logical" name="L2ORDER"> F  </i>
   <i type="logical" name="LUSEW"> F  </i>
   <i name="ENCUTGW">     -2.00000000</i>
   <i name="ENCUTGWSOFT">     -2.00000000</i>
   <i name="ENCUTLF">     -1.00000000</i>
   <i type="int" name="LMAXMP2">    -1</i>
   <i name="SCISSOR">      0.00000000</i>
   <i type="int" name="NOMEGA">     0</i>
   <i type="int" name="NOMEGAR">     0</i>
   <i type="int" name="NBANDSGW">    -1</i>
   <i type="int" name="NBANDSO">    -1</i>
   <i type="int" name="NBANDSV">    -1</i>
   <i type="int" name="NELM">   300</i>
   <i type="int" name="DIM">     3</i>
   <i type="int" name="ANTIRES">     0</i>
   <i name="OMEGAMAX">    -30.00000000</i>
   <i name="OMEGAMIN">    -30.00000000</i>
   <i name="OMEGATL">   -200.00000000</i>
   <i type="int" name="OMEGAGRID">     0</i>
   <i name="CSHIFT">     -0.10000000</i>
   <i type="logical" name="SELFENERGY"> F  </i>
   <i type="logical" name="LSPECTRAL"> F  </i>
   <i type="logical" name="ODDONLYGW"> F  </i>
   <i type="logical" name="EVENONLYGW"> F  </i>
   <i type="int" name="NKREDLFX">     1</i>
   <i type="int" name="NKREDLFY">     1</i>
   <i type="int" name="NKREDLFZ">     1</i>
   <i type="int" name="MAXMEM">  1800</i>
   <i type="int" name="TELESCOPE">     0</i>
   <i type="int" name="TAUPAR">     1</i>
  </separator>
  <separator name="External order field" >
   <i name="OFIELD_KAPPA">      0.00000000</i>
   <v name="OFIELD_K">      0.00000000      0.00000000      0.00000000</v>
   <i name="OFIELD_Q6_NEAR">      0.00000000</i>
   <i name="OFIELD_Q6_FAR">      0.00000000</i>
   <i name="OFIELD_A">      0.00000000</i>
  </separator>
 </parameters>
 <atominfo>
  <atoms>      52 </atoms>
  <types>       3 </types>
  <array name="atoms" >
   <dimension dim="1">ion</dimension>
   <field type="string">element</field>
   <field type="int">atomtype</field>
   <set>
    <rc><c>Fe</c><c>   1</c></rc>
    <rc><c>Fe</c><c>   1</c></rc>
    <rc><c>Fe</c><c>   1</c></rc>
    <rc><c>Fe</c><c>   1</c></rc>
    <rc><c>Fe</c><c>   1</c></rc>
    <rc><c>Fe</c><c>   1</c></rc>
    <rc><c>Fe</c><c>   1</c></rc>
    <rc><c>Fe</c><c>   1</c></rc>
    <rc><c>Fe</c><c>   1</c></rc>
    <rc><c>Fe</c><c>   1</c></rc>
    <rc><c>Fe</c><c>   1</c></rc>
    <rc><c>Fe</c><c>   1</c></rc>
    <rc><c>Fe</c><c>   1</c></rc>
    <rc><c>Fe</c><c>   1</c></rc>
    <rc><c>Fe</c><c>   1</c></rc>
    <rc><c>Fe</c><c>   1</c></rc>
    <rc><c>O </c><c>   2</c></rc>
    <rc><c>O </c><c>   2</c></rc>
    <rc><c>O </c><c>   2</c></rc>
    <rc><c>O </c><c>   2</c></rc>
    <rc><c>F </c><c>   3</c></rc>
    <rc><c>F </c><c>   3</c></rc>
    <rc><c>F </c><c>   3</c></rc>
    <rc><c>F </c><c>   3</c></rc>
    <rc><c>F </c><c>   3</c></rc>
    <rc><c>F </c><c>   3</c></rc>
    <rc><c>F </c><c>   3</c></rc>
    <rc><c>F </c><c>   3</c></rc>
    <rc><c>F </c><c>   3</c></rc>
    <rc><c>F </c><c>   3</c></rc>
    <rc><c>F </c><c>   3</c></rc>
    <rc><c>F </c><c>   3</c></rc>
    <rc><c>F </c><c>   3</c></rc>
    <rc><c>F </c><c>   3</c></rc>
    <rc><c>F </c><c>   3</c></rc>
    <rc><c>F </c><c>   3</c></rc>
    <rc><c>F </c><c>   3</c></rc>
    <rc><c>F </c><c>   3</c></rc>
    <rc><c>F </c><c>   3</c></rc>
    <rc><c>F </c><c>   3</c></rc>
    <rc><c>F </c><c>   3</c></rc>
    <rc><c>F </c><c>   3</c></rc>
    <rc><c>F </c><c>   3</c></rc>
    <rc><c>F </c><c>   3</c></rc>
    <rc><c>F </c><c>   3</c></rc>
    <rc><c>F </c><c>   3</c></rc>
    <rc><c>F </c><c>   3</c></rc>
    <rc><c>F </c><c>   3</c></rc>
    <rc><c>F </c><c>   3</c></rc>
    <rc><c>F </c><c>   3</c></rc>
    <rc><c>F </c><c>   3</c></rc>
    <rc><c>F </c><c>   3</c></rc>
   </set>
  </array>
  <array name="atomtypes" >
   <dimension dim="1">type</dimension>
   <field type="int">atomspertype</field>
   <field type="string">element</field>
   <field>mass</field>
   <field>valence</field>
   <field type="string">pseudopotential</field>
   <set>
    <rc><c>  16</c><c>Fe</c><c>     55.84700000</c><c>      8.00000000</c><c>  PAW_PBE Fe 06Sep2000                  </c></rc>
    <rc><c>   4</c><c>O </c><c>     16.00000000</c><c>      6.00000000</c><c>  PAW_PBE O 08Apr2002                   </c></rc>
    <rc><c>  32</c><c>F </c><c>     18.99800000</c><c>      7.00000000</c><c>  PAW_PBE F 08Apr2002                   </c></rc>
   </set>
  </array>
 </atominfo>
 <structure name="initialpos" >
  <crystal>
   <varray name="basis" >
    <v>       9.40119100       0.00000000      -0.08412900 </v>
    <v>       0.00000000       5.35946700       0.01963200 </v>
    <v>       0.00000000       0.00000000      14.95565100 </v>
   </varray>
   <i name="volume">    753.54605297 </i>
   <varray name="rec_basis" >
    <v>       0.10636950       0.00000000       0.00000000 </v>
    <v>       0.00000000       0.18658572       0.00000000 </v>
    <v>       0.00059835      -0.00024493       0.06686436 </v>
   </varray>
  </crystal>
  <varray name="positions" >
   <v>       0.16411200       0.48397600       0.17995900 </v>
   <v>       0.16411200       0.51602400       0.67995900 </v>
   <v>       0.66411200       0.98397600       0.17995900 </v>
   <v>       0.66411200       0.01602400       0.67995900 </v>
   <v>       0.17533200       0.47285200       0.97303200 </v>
   <v>       0.17533200       0.52714800       0.47303200 </v>
   <v>       0.67533200       0.97285200       0.97303200 </v>
   <v>       0.67533200       0.02714800       0.47303200 </v>
   <v>       0.33162900       0.02941400       0.82240100 </v>
   <v>       0.33162900       0.97058600       0.32240100 </v>
   <v>       0.83162900       0.52941400       0.82240100 </v>
   <v>       0.83162900       0.47058600       0.32240100 </v>
   <v>       0.33361900       0.00432000       0.51711500 </v>
   <v>       0.33361900       0.99568000       0.01711500 </v>
   <v>       0.83361900       0.50432000       0.51711500 </v>
   <v>       0.83361900       0.49568000       0.01711500 </v>
   <v>       0.30522400       0.26740800       0.92544800 </v>
   <v>       0.30926400       0.73259200       0.42544800 </v>
   <v>       0.80926400       0.76740800       0.92544800 </v>
   <v>       0.80050100       0.23259200       0.42544800 </v>
   <v>       0.00386100       0.36884200       0.24394900 </v>
   <v>       0.00386100       0.63115800       0.74394900 </v>
   <v>       0.50386100       0.86884200       0.24394900 </v>
   <v>       0.50386100       0.13115800       0.74394900 </v>
   <v>       0.02591400       0.39537700       0.57915900 </v>
   <v>       0.02591400       0.60462300       0.07915900 </v>
   <v>       0.52591400       0.89537700       0.58805000 </v>
   <v>       0.52591400       0.10462300       0.07915900 </v>
   <v>       0.17611800       0.21417000       0.08350500 </v>
   <v>       0.17611800       0.78583000       0.58350500 </v>
   <v>       0.67611800       0.71417000       0.08350500 </v>
   <v>       0.67611800       0.28583000       0.58350500 </v>
   <v>       0.18147400       0.20344500       0.73945400 </v>
   <v>       0.18147400       0.79655500       0.23945400 </v>
   <v>       0.68701700       0.70344500       0.73945400 </v>
   <v>       0.68147400       0.29655500       0.23945400 </v>
   <v>       0.18900300       0.20186000       0.42366300 </v>
   <v>       0.18900300       0.79814000       0.92298500 </v>
   <v>       0.68900300       0.70186000       0.42366300 </v>
   <v>       0.68900300       0.29814000       0.92366300 </v>
   <v>       0.29347700       0.34357400       0.57827500 </v>
   <v>       0.29347700       0.65313200       0.07827500 </v>
   <v>       0.79347700       0.84686800       0.56870200 </v>
   <v>       0.79347700       0.15313200       0.07827500 </v>
   <v>       0.30310600       0.30561100       0.25030200 </v>
   <v>       0.30310600       0.69270800       0.74801900 </v>
   <v>       0.80310600       0.80561100       0.24801900 </v>
   <v>       0.80938000       0.19438900       0.74801900 </v>
   <v>       0.48332800       0.13464800       0.42295500 </v>
   <v>       0.49071400       0.86535200       0.92295500 </v>
   <v>       0.99071400       0.63464800       0.41550100 </v>
   <v>       0.99071400       0.36535200       0.92295500 </v>
  </varray>
 </structure>
 <calculation>
  <scstep>
   <time name="diag">    0.46    0.53</time>
   <time name="diis">    1.58    1.58</time>
   <time name="orth">    0.14    0.17</time>
   <time name="total">    2.53    2.69</time>
   <energy>
    <i name="alphaZ">   1136.56246079 </i>
    <i name="ewald"> -19712.12839330 </i>
    <i name="hartreedc"> -12176.71047890 </i>
    <i name="XCdc">   1336.21218441 </i>
    <i name="pawpsdc">  27518.38149996 </i>
    <i name="pawaedc"> -27812.06485035 </i>
    <i name="eentropy">     -0.07058082 </i>
    <i name="bandstr">   2129.49601444 </i>
    <i name="atom">  32340.34786160 </i>
    <i name="e_fr_energy">   4760.02571783 </i>
    <i name="e_wo_entrp">   4760.09629865 </i>
    <i name="e_0_energy">   4760.04924477 </i>
   </energy>
  </scstep>
  <scstep>
   <time name="diag">    0.68    0.68</time>
   <time name="diis">    1.65    1.66</time>
   <time name="orth">    0.14    0.14</time>
   <time name="total">    2.48    2.48</time>
   <energy>
    <i name="e_fr_energy">   1588.83919567 </i>
    <i name="e_wo_entrp">   1588.86329663 </i>
    <i name="e_0_energy">   1588.84722932 </i>
   </energy>
  </scstep>
  <scstep>
   <time name="diag">    0.49    0.49</time>
   <time name="diis">    1.61    1.61</time>
   <time name="orth">    0.20    0.20</time>
   <time name="total">    2.30    2.30</time>
   <energy>
    <i name="e_fr_energy">    551.99862439 </i>
    <i name="e_wo_entrp">    551.91625917 </i>
    <i name="e_0_energy">    551.97116931 </i>
   </energy>
  </scstep>
  <scstep>
   <time name="diag">    0.72    0.72</time>
   <time name="diis">    1.63    1.63</time>
   <time name="orth">    0.18    0.18</time>
   <time name="total">    2.55    2.55</time>
   <energy>
    <i name="e_fr_energy">    124.33886288 </i>
    <i name="e_wo_entrp">    124.40992498 </i>
    <i name="e_0_energy">    124.36255025 </i>
   </energy>
  </scstep>
  <scstep>
   <time name="diag">    0.49    0.49</time>
   <time name="diis">    1.65    1.65</time>
   <time name="orth">    0.13    0.13</time>
   <time name="total">    2.27    2.27</time>
   <energy>
    <i name="e_fr_energy">   -125.37974585 </i>
    <i name="e_wo_entrp">   -125.28872801 </i>
    <i name="e_0_energy">   -125.34940657 </i>
   </energy>
  </scstep>
  <scstep>
   <time name="diag">    0.74    0.74</time>
   <time name="diis">    1.59    1.60</time>
   <time name="orth">    0.18    0.19</time>
   <time name="total">    2.52    2.52</time>
   <energy>
    <i name="e_fr_energy">   -238.82946325 </i>
    <i name="e_wo_entrp">   -238.83404609 </i>
    <i name="e_0_energy">   -238.83099086 </i>
   </energy>
  </scstep>
  <scstep>
   <time name="diag">    0.45    0.45</time>
   <time name="diis">    1.48    1.48</time>
   <time name="orth">    0.17    0.17</time>
   <time name="total">    2.10    2.10</time>
   <energy>
    <i name="e_fr_energy">   -294.90664416 </i>
    <i name="e_wo_entrp">   -294.92786699 </i>
    <i name="e_0_energy">   -294.91371844 </i>
   </energy>
  </scstep>
  <scstep>
   <time name="diag">    0.58    0.58</time>
   <time name="diis">    1.51    1.51</time>
   <time name="orth">    0.20    0.20</time>
   <time name="total">    2.29    2.29</time>
   <energy>
    <i name="e_fr_energy">   -316.61392547 </i>
    <i name="e_wo_entrp">   -316.66437028 </i>
    <i name="e_0_energy">   -316.63074041 </i>
   </energy>
  </scstep>
  <scstep>
   <time name="diag">    0.63    0.63</time>
   <time name="diis">    4.57    4.57</time>
   <time name="orth">    0.15    0.15</time>
   <time name="total">    5.35    5.35</time>
   <energy>
    <i name="e_fr_energy">   -336.88364999 </i>
    <i name="e_wo_entrp">   -336.91754745 </i>
    <i name="e_0_energy">   -336.89494914 </i>
   </energy>
  </scstep>
  <scstep>
   <time name="diag">    0.48    0.48</time>
   <time name="diis">    4.82    4.83</time>
   <time name="orth">    0.14    0.14</time>
   <time name="total">    5.44    5.44</time>
   <energy>
    <i name="e_fr_energy">   -337.36664295 </i>
    <i name="e_wo_entrp">   -337.37925247 </i>
    <i name="e_0_energy">   -337.37084613 </i>
   </energy>
  </scstep>
  <scstep>
   <time name="diag">    0.66    0.66</time>
   <time name="diis">    4.25    4.25</time>
   <time name="orth">    0.37    0.37</time>
   <time name="total">    5.28    5.28</time>
   <energy>
    <i name="e_fr_energy">   -337.67728611 </i>
    <i name="e_wo_entrp">   -337.68346714 </i>
    <i name="e_0_energy">   -337.67934645 </i>
   </energy>
  </scstep>
  <scstep>
   <time name="diag">    0.87    0.87</time>
   <time name="diis">    3.71    3.72</time>
   <time name="orth">    0.25    0.25</time>
   <time name="total">    5.06    5.06</time>
   <energy>
    <i name="e_fr_energy">   -337.78130259 </i>
    <i name="e_wo_entrp">   -337.78618908 </i>
    <i name="e_0_energy">   -337.78293142 </i>
   </energy>
  </scstep>
  <scstep>
   <time name="diag">    0.42    0.42</time>
   <time name="diis">    3.24    3.25</time>
   <time name="orth">    0.13    0.13</time>
   <time name="total">    4.13    4.13</time>
   <energy>
    <i name="e_fr_energy">   -325.92533253 </i>
    <i name="e_wo_entrp">   -325.77065129 </i>
    <i name="e_0_energy">   -325.87377212 </i>
   </energy>
  </scstep>
  <scstep>
   <time name="diag">    0.43    0.43</time>
   <time name="diis">    3.27    3.28</time>
   <time name="orth">    0.18    0.18</time>
   <time name="total">    4.28    4.29</time>
   <energy>
    <i name="e_fr_energy">   -395.22778068 </i>
    <i name="e_wo_entrp">   -394.95075438 </i>
    <i name="e_0_energy">   -395.13543858 </i>
   </energy>
  </scstep>
  <scstep>
   <time name="diag">    0.49    0.49</time>
   <time name="diis">    3.14    3.15</time>
   <time name="orth">    0.14    0.14</time>
   <time name="total">    4.22    4.22</time>
   <energy>
    <i name="e_fr_energy">   -321.16356372 </i>
    <i name="e_wo_entrp">   -321.10957733 </i>
    <i name="e_0_energy">   -321.14556826 </i>
   </energy>
  </scstep>
  <scstep>
   <time name="diag">    0.54    0.54</time>
   <time name="diis">    3.08    3.09</time>
   <time name="orth">    0.13    0.13</time>
   <time name="total">    4.29    4.29</time>
   <energy>
    <i name="e_fr_energy">   -303.44407514 </i>
    <i name="e_wo_entrp">   -303.32044626 </i>
    <i name="e_0_energy">   -303.40286552 </i>
   </energy>
  </scstep>
  <scstep>
   <time name="diag">    0.83    0.83</time>
   <time name="diis">    3.06    3.06</time>
   <time name="orth">    0.15    0.15</time>
   <time name="total">    4.46    4.47</time>
   <energy>
    <i name="e_fr_energy">   -383.16622400 </i>
    <i name="e_wo_entrp">   -383.02413798 </i>
    <i name="e_0_energy">   -383.11886199 </i>
   </energy>
  </scstep>
  <scstep>
   <time name="diag">    0.64    0.64</time>
   <time name="diis">    3.05    3.05</time>
   <time name="orth">    0.20    0.20</time>
   <time name="total">    4.36    4.37</time>
   <energy>
    <i name="e_fr_energy">   -366.15054830 </i>
    <i name="e_wo_entrp">   -366.07762928 </i>
    <i name="e_0_energy">   -366.12624196 </i>
   </energy>
  </scstep>
  <scstep>
   <time name="diag">    0.56    0.56</time>
   <time name="diis">    3.00    3.32</time>
   <time name="orth">    0.19    0.31</time>
   <time name="total">    4.23    4.71</time>
   <energy>
    <i name="e_fr_energy">   -330.66192278 </i>
    <i name="e_wo_entrp">   -330.74594475 </i>
    <i name="e_0_energy">   -330.68993011 </i>
   </energy>
  </scstep>
  <scstep>
   <time name="diag">    0.29    0.44</time>
   <time name="diis">    2.06    3.14</time>
   <time name="orth">    0.12    0.18</time>
   <time name="total">    2.75    4.09</time>
   <energy>
    <i name="e_fr_energy">   -332.37023036 </i>
    <i name="e_wo_entrp">   -332.47375213 </i>
    <i name="e_0_energy">   -332.40473762 </i>
   </energy>
  </scstep>
  <scstep>
   <time name="diag">    0.35    0.53</time>
   <time name="diis">    2.07    3.09</time>
   <time name="orth">    0.17    0.22</time>
   <time name="total">    2.94    4.36</time>
   <energy>
    <i name="e_fr_energy">   -330.79727704 </i>
    <i name="e_wo_entrp">   -330.80326699 </i>
    <i name="e_0_energy">   -330.79927369 </i>
   </energy>
  </scstep>
  <scstep>
   <time name="diag">    0.45    0.69</time>
   <time name="diis">    2.06    2.96</time>
   <time name="orth">    0.09    0.18</time>
   <time name="total">    2.98    4.40</time>
   <energy>
    <i name="e_fr_energy">   -342.79911399 </i>
    <i name="e_wo_entrp">   -342.75177273 </i>
    <i name="e_0_energy">   -342.78333357 </i>
   </energy>
  </scstep>
  <scstep>
   <time name="diag">    0.34    0.47</time>
   <time name="diis">    2.11    3.08</time>
   <time name="orth">    0.11    0.15</time>
   <time name="total">    2.93    4.22</time>
   <energy>
    <i name="e_fr_energy">   -323.31046764 </i>
    <i name="e_wo_entrp">   -323.35871642 </i>
    <i name="e_0_energy">   -323.32655057 </i>
   </energy>
  </scstep>
  <scstep>
   <time name="diag">    0.51    0.75</time>
   <time name="diis">    2.13    3.08</time>
   <time name="orth">    0.11    0.19</time>
   <time name="total">    3.00    4.41</time>
   <energy>
    <i name="e_fr_energy">   -315.52189001 </i>
    <i name="e_wo_entrp">   -315.36496724 </i>
    <i name="e_0_energy">   -315.46958242 </i>
   </energy>
  </scstep>
  <scstep>
   <time name="diag">    0.29    0.46</time>
   <time name="diis">    2.67    3.11</time>
   <time name="orth">    0.13    0.15</time>
   <time name="total">    3.35    4.06</time>
   <energy>
    <i name="e_fr_energy">   -311.35431288 </i>
    <i name="e_wo_entrp">   -311.27819908 </i>
    <i name="e_0_energy">   -311.32894161 </i>
   </energy>
  </scstep>
  <scstep>
   <time name="diag">    0.38    0.45</time>
   <time name="diis">    2.41    3.02</time>
   <time name="orth">    0.11    0.17</time>
   <time name="total">    3.23    4.03</time>
   <energy>
    <i name="e_fr_energy">   -296.92173442 </i>
    <i name="e_wo_entrp">   -296.89589104 </i>
    <i name="e_0_energy">   -296.91311996 </i>
   </energy>
  </scstep>
  <scstep>
   <time name="diag">    0.37    0.44</time>
   <time name="diis">    2.21    3.17</time>
   <time name="orth">    0.11    0.17</time>
   <time name="total">    3.01    4.19</time>
   <energy>
    <i name="e_fr_energy">   -292.77458479 </i>
    <i name="e_wo_entrp">   -292.67112778 </i>
    <i name="e_0_energy">   -292.74009912 </i>
   </energy>
  </scstep>
  <scstep>
   <time name="diag">    0.34    0.47</time>
   <time name="diis">    2.24    2.94</time>
   <time name="orth">    0.16    0.26</time>
   <time name="total">    3.08    4.20</time>
   <energy>
    <i name="e_fr_energy">   -286.34600011 </i>
    <i name="e_wo_entrp">   -286.31361797 </i>
    <i name="e_0_energy">   -286.33520606 </i>
   </energy>
  </scstep>
  <scstep>
   <time name="diag">    0.37    0.53</time>
   <time name="diis">    2.28    3.27</time>
   <time name="orth">    0.11    0.17</time>
   <time name="total">    3.10    4.49</time>
   <energy>
    <i name="e_fr_energy">   -287.02667640 </i>
    <i name="e_wo_entrp">   -286.98868441 </i>
    <i name="e_0_energy">   -287.01401240 </i>
   </energy>
  </scstep>
  <scstep>
   <time name="diag">    0.34    0.49</time>
   <time name="diis">    2.40    3.34</time>
   <time name="orth">    0.09    0.15</time>
   <time name="total">    3.17    4.44</time>
   <energy>
    <i name="e_fr_energy">   -282.00503616 </i>
    <i name="e_wo_entrp">   -281.90863300 </i>
    <i name="e_0_energy">   -281.97290177 </i>
   </energy>
  </scstep>
  <scstep>
   <time name="diag">    0.54    0.95</time>
   <time name="diis">    2.06    2.95</time>
   <time name="orth">    0.10    0.17</time>
   <time name="total">    3.03    4.45</time>
   <energy>
    <i name="e_fr_energy">   -281.28373339 </i>
    <i name="e_wo_entrp">   -281.21902241 </i>
    <i name="e_0_energy">   -281.26216306 </i>
   </energy>
  </scstep>
  <scstep>
   <time name="diag">    0.31    0.48</time>
   <time name="diis">    2.11    3.13</time>
   <time name="orth">    0.11    0.17</time>
   <time name="total">    2.79    4.16</time>
   <energy>
    <i name="e_fr_energy">   -279.32199091 </i>
    <i name="e_wo_entrp">   -279.07971672 </i>
    <i name="e_0_energy">   -279.24123284 </i>
   </energy>
  </scstep>
  <scstep>
   <time name="diag">    0.31    0.42</time>
   <time name="diis">    2.30    3.03</time>
   <time name="orth">    0.16    0.16</time>
   <time name="total">    3.11    4.02</time>
   <energy>
    <i name="e_fr_energy">   -278.52618824 </i>
    <i name="e_wo_entrp">   -278.41861734 </i>
    <i name="e_0_energy">   -278.49033127 </i>
   </energy>
  </scstep>
  <scstep>
   <time name="diag">    0.32    0.32</time>
   <time name="diis">    2.03    3.13</time>
   <time name="orth">    0.15    0.24</time>
   <time name="total">    2.80    4.21</time>
   <energy>
    <i name="e_fr_energy">   -278.97253907 </i>
    <i name="e_wo_entrp">   -278.77353302 </i>
    <i name="e_0_energy">   -278.90620372 </i>
   </energy>
  </scstep>
  <scstep>
   <time name="diag">    0.35    0.53</time>
   <time name="diis">    2.14    3.11</time>
   <time name="orth">    0.14    0.21</time>
   <time name="total">    2.88    4.23</time>
   <energy>
    <i name="e_fr_energy">   -279.01408930 </i>
    <i name="e_wo_entrp">   -278.80699659 </i>
    <i name="e_0_energy">   -278.94505840 </i>
   </energy>
  </scstep>
  <scstep>
   <time name="diag">    0.33    0.52</time>
   <time name="diis">    2.15    3.07</time>
   <time name="orth">    0.07    0.14</time>
   <time name="total">    2.82    4.17</time>
   <energy>
    <i name="e_fr_energy">   -278.61329036 </i>
    <i name="e_wo_entrp">   -278.34261271 </i>
    <i name="e_0_energy">   -278.52306448 </i>
   </energy>
  </scstep>
  <scstep>
   <time name="diag">    0.39    0.51</time>
   <time name="diis">    2.76    3.23</time>
   <time name="orth">    0.15    0.16</time>
   <time name="total">    3.67    4.49</time>
   <energy>
    <i name="e_fr_energy">   -278.60028648 </i>
    <i name="e_wo_entrp">   -278.44484382 </i>
    <i name="e_0_energy">   -278.54847226 </i>
   </energy>
  </scstep>
  <scstep>
   <time name="diag">    0.38    0.45</time>
   <time name="diis">    2.05    3.00</time>
   <time name="orth">    0.08    0.16</time>
   <time name="total">    2.80    4.02</time>
   <energy>
    <i name="e_fr_energy">   -278.10166624 </i>
    <i name="e_wo_entrp">   -277.88635145 </i>
    <i name="e_0_energy">   -278.02989465 </i>
   </energy>
  </scstep>
  <scstep>
   <time name="diag">    0.32    0.56</time>
   <time name="diis">    2.04    3.10</time>
   <time name="orth">    0.10    0.15</time>
   <time name="total">    2.75    4.18</time>
   <energy>
    <i name="e_fr_energy">   -278.27023870 </i>
    <i name="e_wo_entrp">   -278.03520636 </i>
    <i name="e_0_energy">   -278.19189458 </i>
   </energy>
  </scstep>
  <scstep>
   <time name="diag">    0.32    0.46</time>
   <time name="diis">    2.09    3.10</time>
   <time name="orth">    0.17    0.29</time>
   <time name="total">    2.85    4.21</time>
   <energy>
    <i name="e_fr_energy">   -277.59214935 </i>
    <i name="e_wo_entrp">   -277.51385947 </i>
    <i name="e_0_energy">   -277.56605272 </i>
   </energy>
  </scstep>
  <scstep>
   <time name="diag">    0.28    0.41</time>
   <time name="diis">    2.39    3.55</time>
   <time name="orth">    0.17    0.20</time>
   <time name="total">    3.21    4.64</time>
   <energy>
    <i name="e_fr_energy">   -277.51954548 </i>
    <i name="e_wo_entrp">   -277.39748289 </i>
    <i name="e_0_energy">   -277.47885795 </i>
   </energy>
  </scstep>
  <scstep>
   <time name="diag">    0.33    0.49</time>
   <time name="diis">    3.13    4.05</time>
   <time name="orth">    0.11    0.16</time>
   <time name="total">    4.06    5.47</time>
   <energy>
    <i name="e_fr_energy">   -277.19523720 </i>
    <i name="e_wo_entrp">   -277.19243464 </i>
    <i name="e_0_energy">   -277.19430301 </i>
   </energy>
  </scstep>
  <scstep>
   <time name="diag">    0.46    0.67</time>
   <time name="diis">    2.55    3.80</time>
   <time name="orth">    0.13    0.16</time>
   <time name="total">    3.51    5.13</time>
   <energy>
    <i name="e_fr_energy">   -277.05450891 </i>
    <i name="e_wo_entrp">   -277.08087964 </i>
    <i name="e_0_energy">   -277.06329915 </i>
   </energy>
  </scstep>
  <scstep>
   <time name="diag">    0.34    0.50</time>
   <time name="diis">    2.58    3.74</time>
   <time name="orth">    0.12    0.21</time>
   <time name="total">    3.37    4.93</time>
   <energy>
    <i name="e_fr_energy">   -277.01005627 </i>
    <i name="e_wo_entrp">   -277.06948032 </i>
    <i name="e_0_energy">   -277.02986429 </i>
   </energy>
  </scstep>
  <scstep>
   <time name="diag">    0.41    0.57</time>
   <time name="diis">    2.21    3.11</time>
   <time name="orth">    0.11    0.17</time>
   <time name="total">    3.02    4.36</time>
   <energy>
    <i name="e_fr_energy">   -277.01907429 </i>
    <i name="e_wo_entrp">   -277.07453968 </i>
    <i name="e_0_energy">   -277.03756275 </i>
   </energy>
  </scstep>
  <scstep>
   <time name="diag">    0.35    0.51</time>
   <time name="diis">    2.04    3.07</time>
   <time name="orth">    0.13    0.16</time>
   <time name="total">    2.86    4.26</time>
   <energy>
    <i name="e_fr_energy">   -277.01468514 </i>
    <i name="e_wo_entrp">   -277.07135707 </i>
    <i name="e_0_energy">   -277.03357578 </i>
   </energy>
  </scstep>
  <scstep>
   <time name="diag">    0.24    0.33</time>
   <time name="diis">    2.13    3.13</time>
   <time name="orth">    0.12    0.14</time>
   <time name="total">    2.92    4.21</time>
   <energy>
    <i name="e_fr_energy">   -277.02175702 </i>
    <i name="e_wo_entrp">   -277.08260419 </i>
    <i name="e_0_energy">   -277.04203941 </i>
   </energy>
  </scstep>
  <scstep>
   <time name="diag">    0.35    0.52</time>
   <time name="diis">    1.91    2.91</time>
   <time name="orth">    0.12    0.15</time>
   <time name="total">    2.65    4.01</time>
   <energy>
    <i name="e_fr_energy">   -277.02050368 </i>
    <i name="e_wo_entrp">   -277.07499061 </i>
    <i name="e_0_energy">   -277.03866599 </i>
   </energy>
  </scstep>
  <scstep>
   <time name="diag">    0.30    0.45</time>
   <time name="diis">    1.80    2.63</time>
   <time name="orth">    0.17    0.23</time>
   <time name="total">    2.57    3.73</time>
   <energy>
    <i name="e_fr_energy">   -277.01620410 </i>
    <i name="e_wo_entrp">   -277.07442551 </i>
    <i name="e_0_energy">   -277.03561123 </i>
   </energy>
  </scstep>
  <scstep>
   <time name="diag">    0.42    0.56</time>
   <time name="diis">    1.98    2.88</time>
   <time name="orth">    0.10    0.12</time>
   <time name="total">    2.84    3.97</time>
   <energy>
    <i name="e_fr_energy">   -277.01660340 </i>
    <i name="e_wo_entrp">   -277.07460113 </i>
    <i name="e_0_energy">   -277.03593598 </i>
   </energy>
  </scstep>
  <scstep>
   <time name="diag">    0.36    0.45</time>
   <time name="diis">    1.46    2.11</time>
   <time name="orth">    0.14    0.22</time>
   <time name="total">    2.28    3.18</time>
   <energy>
    <i name="e_fr_energy">   -277.01588789 </i>
    <i name="e_wo_entrp">   -277.07259557 </i>
    <i name="e_0_energy">   -277.03479045 </i>
   </energy>
  </scstep>
  <scstep>
   <time name="diag">    0.32    0.50</time>
   <time name="diis">    1.23    1.84</time>
   <time name="orth">    0.10    0.14</time>
   <time name="total">    1.94    2.93</time>
   <energy>
    <i name="e_fr_energy">   -277.01465932 </i>
    <i name="e_wo_entrp">   -277.07214201 </i>
    <i name="e_0_energy">   -277.03382022 </i>
   </energy>
  </scstep>
  <scstep>
   <time name="diag">    0.24    0.39</time>
   <time name="diis">    1.11    1.68</time>
   <time name="orth">    0.10    0.16</time>
   <time name="total">    1.59    2.43</time>
   <energy>
    <i name="alphaZ">   1136.56246079 </i>
    <i name="ewald"> -19712.12839330 </i>
    <i name="hartreedc"> -12324.97967051 </i>
    <i name="XCdc">   1356.51236188 </i>
    <i name="pawpsdc">  32586.22792379 </i>
    <i name="pawaedc"> -32890.73799883 </i>
    <i name="eentropy">      0.05711145 </i>
    <i name="bandstr">  -2768.87630748 </i>
    <i name="atom">  32340.34786160 </i>
    <i name="e_fr_energy">   -277.01465061 </i>
    <i name="e_wo_entrp">   -277.07176206 </i>
    <i name="e_0_energy">   -277.03368776 </i>
   </energy>
  </scstep>
  <structure>
   <crystal>
    <varray name="basis" >
     <v>       9.40119100       0.00000000      -0.08412900 </v>
     <v>       0.00000000       5.35946700       0.01963200 </v>
     <v>       0.00000000       0.00000000      14.95565100 </v>
    </varray>
    <i name="volume">    753.54605297 </i>
    <varray name="rec_basis" >
     <v>       0.10636950       0.00000000       0.00000000 </v>
     <v>       0.00000000       0.18658572       0.00000000 </v>
     <v>       0.00059835      -0.00024493       0.06686436 </v>
    </varray>
   </crystal>
   <varray name="positions" >
    <v>       0.16411200       0.48397600       0.17995900 </v>
    <v>       0.16411200       0.51602400       0.67995900 </v>
    <v>       0.66411200       0.98397600       0.17995900 </v>
    <v>       0.66411200       0.01602400       0.67995900 </v>
    <v>       0.17533200       0.47285200       0.97303200 </v>
    <v>       0.17533200       0.52714800       0.47303200 </v>
    <v>       0.67533200       0.97285200       0.97303200 </v>
    <v>       0.67533200       0.02714800       0.47303200 </v>
    <v>       0.33162900       0.02941400       0.82240100 </v>
    <v>       0.33162900       0.97058600       0.32240100 </v>
    <v>       0.83162900       0.52941400       0.82240100 </v>
    <v>       0.83162900       0.47058600       0.32240100 </v>
    <v>       0.33361900       0.00432000       0.51711500 </v>
    <v>       0.33361900       0.99568000       0.01711500 </v>
    <v>       0.83361900       0.50432000       0.51711500 </v>
    <v>       0.83361900       0.49568000       0.01711500 </v>
    <v>       0.30522400       0.26740800       0.92544800 </v>
    <v>       0.30926400       0.73259200       0.42544800 </v>
    <v>       0.80926400       0.76740800       0.92544800 </v>
    <v>       0.80050100       0.23259200       0.42544800 </v>
    <v>       0.00386100       0.36884200       0.24394900 </v>
    <v>       0.00386100       0.63115800       0.74394900 </v>
    <v>       0.50386100       0.86884200       0.24394900 </v>
    <v>       0.50386100       0.13115800       0.74394900 </v>
    <v>       0.02591400       0.39537700       0.57915900 </v>
    <v>       0.02591400       0.60462300       0.07915900 </v>
    <v>       0.52591400       0.89537700       0.58805000 </v>
    <v>       0.52591400       0.10462300       0.07915900 </v>
    <v>       0.17611800       0.21417000       0.08350500 </v>
    <v>       0.17611800       0.78583000       0.58350500 </v>
    <v>       0.67611800       0.71417000       0.08350500 </v>
    <v>       0.67611800       0.28583000       0.58350500 </v>
    <v>       0.18147400       0.20344500       0.73945400 </v>
    <v>       0.18147400       0.79655500       0.23945400 </v>
    <v>       0.68701700       0.70344500       0.73945400 </v>
    <v>       0.68147400       0.29655500       0.23945400 </v>
    <v>       0.18900300       0.20186000       0.42366300 </v>
    <v>       0.18900300       0.79814000       0.92298500 </v>
    <v>       0.68900300       0.70186000       0.42366300 </v>
    <v>       0.68900300       0.29814000       0.92366300 </v>
    <v>       0.29347700       0.34357400       0.57827500 </v>
    <v>       0.29347700       0.65313200       0.07827500 </v>
    <v>       0.79347700       0.84686800       0.56870200 </v>
    <v>       0.79347700       0.15313200       0.07827500 </v>
    <v>       0.30310600       0.30561100       0.25030200 </v>
    <v>       0.30310600       0.69270800       0.74801900 </v>
    <v>       0.80310600       0.80561100       0.24801900 </v>
    <v>       0.80938000       0.19438900       0.74801900 </v>
    <v>       0.48332800       0.13464800       0.42295500 </v>
    <v>       0.49071400       0.86535200       0.92295500 </v>
    <v>       0.99071400       0.63464800       0.41550100 </v>
    <v>       0.99071400       0.36535200       0.92295500 </v>
   </varray>
  </structure>
  <varray name="forces" >
   <v>       0.16636240       0.13336355      -0.30261417 </v>
   <v>       0.08751825      -0.15533540      -0.34515671 </v>
   <v>       0.11379251       0.15305889      -0.38835330 </v>
   <v>       0.18952788       0.24014896      -0.05630463 </v>
   <v>       0.11461844      -0.64158755       1.27155052 </v>
   <v>       0.19652463       0.67998674       0.93494226 </v>
   <v>       0.38398882      -0.78061511       1.24836916 </v>
   <v>      -0.27602602       0.32787172       1.10587240 </v>
   <v>      -0.54004035       1.03825310      -0.05046597 </v>
   <v>      -0.50598265      -1.03322975      -0.00342326 </v>
   <v>      -0.31816977       0.99447195      -0.02563537 </v>
   <v>      -0.47138659      -1.05010299      -0.07337564 </v>
   <v>       0.13959924      -1.20833426      -1.25610192 </v>
   <v>       0.20282113       1.25043701      -1.35828771 </v>
   <v>       0.16814760      -1.38069838      -1.59082539 </v>
   <v>       0.27158347       1.24733157      -1.38435509 </v>
   <v>       0.00771479      -1.82019448       0.10467530 </v>
   <v>      -0.31451398       1.70799487       0.22570172 </v>
   <v>      -0.38127193      -1.71261837       0.19636525 </v>
   <v>       0.47774704       2.02950932       0.04059325 </v>
   <v>      -0.34800937       0.19787983       0.32559605 </v>
   <v>      -0.30775081      -0.20923497       0.31956743 </v>
   <v>      -0.33760511       0.22324805       0.34306488 </v>
   <v>      -0.30297234      -0.22162692       0.48180824 </v>
   <v>      -0.65805734       0.30474126      -0.46988219 </v>
   <v>      -0.64031819      -0.24325886      -0.39573712 </v>
   <v>      -0.56928097       0.15273167      -0.69371569 </v>
   <v>      -0.66058051      -0.24584920      -0.39813373 </v>
   <v>       0.21498234      -0.31875519      -0.36867700 </v>
   <v>       0.19929221       0.31390832      -0.39685004 </v>
   <v>       0.20577091      -0.31011724      -0.43446609 </v>
   <v>       0.20436304       0.30952411      -0.30535357 </v>
   <v>       0.71203913       0.07521908       0.64445949 </v>
   <v>       0.72181949      -0.09722560       0.60984729 </v>
   <v>       0.61962485       0.01744750       0.55701226 </v>
   <v>       0.68751502      -0.09852975       0.61575407 </v>
   <v>       0.49397926      -0.21962536       0.11573470 </v>
   <v>       0.49804680       0.21681471       0.06888975 </v>
   <v>       0.33908246      -0.16923670      -0.06686250 </v>
   <v>       0.48247585       0.29141477       0.01876144 </v>
   <v>       0.15481118       0.21902833      -0.40884801 </v>
   <v>       0.19971719      -0.13932816      -0.36151680 </v>
   <v>       0.26475876       0.24706895       0.00816367 </v>
   <v>       0.19813012      -0.13487501      -0.35014870 </v>
   <v>      -0.27490761      -0.16171545       0.18052426 </v>
   <v>      -0.20818051       0.18444544       0.29493702 </v>
   <v>      -0.20548696      -0.16067015       0.28001635 </v>
   <v>      -0.52674803       0.14772499       0.15863028 </v>
   <v>      -0.04576687      -0.54466881       0.36033330 </v>
   <v>      -0.32162472       0.46979727       0.18397170 </v>
   <v>      -0.20383702      -0.58106256       0.56239794 </v>
   <v>      -0.29783717       0.46507426       0.22755061 </v>
  </varray>
  <varray name="stress" >
   <v>    -206.62964840      -0.46460230      -3.21470557 </v>
   <v>      -0.46460146    -210.27111896       0.52752476 </v>
   <v>      -3.21470614       0.52752418    -236.92155858 </v>
  </varray>
  <energy>
   <i name="e_fr_energy">   -277.01465061 </i>
   <i name="e_wo_entrp">   -277.03368776 </i>
   <i name="e_0_energy">      0.05711145 </i>
  </energy>
  <time name="totalsc">  176.60  222.72</time>
  <eigenvalues>
   <array>
    <dimension dim="1">band</dimension>
    <dimension dim="2">kpoint</dimension>
    <dimension dim="3">spin</dimension>
    <field>eigene</field>
    <field>occ</field>
    <set>
     <set comment="spin 1">
      <set comment="kpoint 1">
       <r>  -23.8798    1.0000 </r>
       <r>  -23.8376    1.0000 </r>
       <r>  -23.7678    1.0000 </r>
       <r>  -23.7288    1.0000 </r>
       <r>  -23.6967    1.0000 </r>
       <r>  -23.6674    1.0000 </r>
       <r>  -23.6022    1.0000 </r>
       <r>  -23.5569    1.0000 </r>
       <r>  -23.5335    1.0000 </r>
       <r>  -23.5250    1.0000 </r>
       <r>  -23.5067    1.0000 </r>
       <r>  -23.4736    1.0000 </r>
       <r>  -23.3693    1.0000 </r>
       <r>  -23.2774    1.0000 </r>
       <r>  -23.2567    1.0000 </r>
       <r>  -23.2454    1.0000 </r>
       <r>  -23.1876    1.0000 </r>
       <r>  -23.1504    1.0000 </r>
       <r>  -23.1340    1.0000 </r>
       <r>  -23.1092    1.0000 </r>
       <r>  -23.0986    1.0000 </r>
       <r>  -23.0848    1.0000 </r>
       <r>  -23.0803    1.0000 </r>
       <r>  -23.0308    1.0000 </r>
       <r>  -22.9996    1.0000 </r>
       <r>  -22.9846    1.0000 </r>
       <r>  -22.9599    1.0000 </r>
       <r>  -22.9256    1.0000 </r>
       <r>  -22.7786    1.0000 </r>
       <r>  -22.7588    1.0000 </r>
       <r>  -22.7529    1.0000 </r>
       <r>  -22.6253    1.0000 </r>
       <r>  -18.8955    1.0000 </r>
       <r>  -18.7979    1.0000 </r>
       <r>  -18.7126    1.0000 </r>
       <r>  -18.6944    1.0000 </r>
       <r>   -6.9872    1.0000 </r>
       <r>   -6.9723    1.0000 </r>
       <r>   -6.8869    1.0000 </r>
       <r>   -6.8127    1.0000 </r>
       <r>   -6.7917    1.0000 </r>
       <r>   -6.7609    1.0000 </r>
       <r>   -6.7366    1.0000 </r>
       <r>   -6.7304    1.0000 </r>
       <r>   -6.4787    1.0000 </r>
       <r>   -6.4070    1.0000 </r>
       <r>   -6.3189    1.0000 </r>
       <r>   -6.2350    1.0000 </r>
       <r>   -6.2174    1.0000 </r>
       <r>   -6.1722    1.0000 </r>
       <r>   -6.1528    1.0000 </r>
       <r>   -6.1183    1.0000 </r>
       <r>   -6.1064    1.0000 </r>
       <r>   -6.0785    1.0000 </r>
       <r>   -6.0707    1.0000 </r>
       <r>   -6.0615    1.0000 </r>
       <r>   -6.0344    1.0000 </r>
       <r>   -5.9736    1.0000 </r>
       <r>   -5.9541    1.0000 </r>
       <r>   -5.9471    1.0000 </r>
       <r>   -5.9196    1.0000 </r>
       <r>   -5.9152    1.0000 </r>
       <r>   -5.8986    1.0000 </r>
       <r>   -5.8696    1.0000 </r>
       <r>   -5.8513    1.0000 </r>
       <r>   -5.8087    1.0000 </r>
       <r>   -5.8027    1.0000 </r>
       <r>   -5.7453    1.0000 </r>
       <r>   -5.7269    1.0000 </r>
       <r>   -5.7087    1.0000 </r>
       <r>   -5.6782    1.0000 </r>
       <r>   -5.6681    1.0000 </r>
       <r>   -5.6578    1.0000 </r>
       <r>   -5.6379    1.0000 </r>
       <r>   -5.6037    1.0000 </r>
       <r>   -5.5866    1.0000 </r>
       <r>   -5.5466    1.0000 </r>
       <r>   -5.5353    1.0000 </r>
       <r>   -5.5139    1.0000 </r>
       <r>   -5.4637    1.0000 </r>
       <r>   -5.4337    1.0000 </r>
       <r>   -5.4219    1.0000 </r>
       <r>   -5.3029    1.0000 </r>
       <r>   -5.2470    1.0000 </r>
       <r>   -5.2357    1.0000 </r>
       <r>   -5.1534    1.0000 </r>
       <r>   -5.1243    1.0000 </r>
       <r>   -5.0972    1.0000 </r>
       <r>   -5.0475    1.0000 </r>
       <r>   -5.0426    1.0000 </r>
       <r>   -4.9977    1.0000 </r>
       <r>   -4.9802    1.0000 </r>
       <r>   -4.9250    1.0000 </r>
       <r>   -4.8383    1.0000 </r>
       <r>   -4.7887    1.0000 </r>
       <r>   -4.7771    1.0000 </r>
       <r>   -4.7241    1.0000 </r>
       <r>   -4.6718    1.0000 </r>
       <r>   -4.6523    1.0000 </r>
       <r>   -4.6432    1.0000 </r>
       <r>   -4.6132    1.0000 </r>
       <r>   -4.5772    1.0000 </r>
       <r>   -4.5461    1.0000 </r>
       <r>   -4.5402    1.0000 </r>
       <r>   -4.5188    1.0000 </r>
       <r>   -4.4881    1.0000 </r>
       <r>   -4.4861    1.0000 </r>
       <r>   -4.4698    1.0000 </r>
       <r>   -4.4094    1.0000 </r>
       <r>   -4.4063    1.0000 </r>
       <r>   -4.3738    1.0000 </r>
       <r>   -4.3461    1.0000 </r>
       <r>   -4.3107    1.0000 </r>
       <r>   -4.2922    1.0000 </r>
       <r>   -4.2137    1.0000 </r>
       <r>   -4.2013    1.0000 </r>
       <r>   -4.1539    1.0000 </r>
       <r>   -4.1142    1.0000 </r>
       <r>   -4.1067    1.0000 </r>
       <r>   -4.0974    1.0000 </r>
       <r>   -4.0484    1.0000 </r>
       <r>   -4.0215    1.0000 </r>
       <r>   -4.0152    1.0000 </r>
       <r>   -3.9896    1.0000 </r>
       <r>   -3.9323    1.0000 </r>
       <r>   -3.9187    1.0000 </r>
       <r>   -3.8953    1.0000 </r>
       <r>   -3.8674    1.0000 </r>
       <r>   -3.8488    1.0000 </r>
       <r>   -3.8154    1.0000 </r>
       <r>   -3.8062    1.0000 </r>
       <r>   -3.7995    1.0000 </r>
       <r>   -3.7680    1.0000 </r>
       <r>   -3.7407    1.0000 </r>
       <r>   -3.7237    1.0000 </r>
       <r>   -3.6865    1.0000 </r>
       <r>   -3.6475    1.0000 </r>
       <r>   -3.5869    1.0000 </r>
       <r>   -3.5257    1.0000 </r>
       <r>   -3.5094    1.0000 </r>
       <r>   -3.4951    1.0000 </r>
       <r>   -3.4557    1.0000 </r>
       <r>   -3.4150    1.0000 </r>
       <r>   -3.3806    1.0000 </r>
       <r>   -0.8367    1.0000 </r>
       <r>   -0.8193    1.0000 </r>
       <r>   -0.8022    1.0000 </r>
       <r>   -0.7605    1.0000 </r>
       <r>   -0.7502    1.0000 </r>
       <r>   -0.7401    1.0000 </r>
       <r>   -0.7048    1.0001 </r>
       <r>   -0.6922    1.0002 </r>
       <r>   -0.6495    1.0005 </r>
       <r>   -0.6384    1.0007 </r>
       <r>   -0.6316    1.0008 </r>
       <r>   -0.6252    1.0009 </r>
       <r>   -0.6151    1.0011 </r>
       <r>   -0.6030    1.0015 </r>
       <r>   -0.5810    1.0023 </r>
       <r>   -0.5596    1.0035 </r>
       <r>   -0.5306    1.0060 </r>
       <r>   -0.4945    1.0107 </r>
       <r>   -0.4721    1.0147 </r>
       <r>   -0.4657    1.0160 </r>
       <r>   -0.4398    1.0216 </r>
       <r>   -0.4306    1.0237 </r>
       <r>   -0.4233    1.0254 </r>
       <r>   -0.4171    1.0268 </r>
       <r>   -0.4123    1.0279 </r>
       <r>   -0.3980    1.0309 </r>
       <r>   -0.3931    1.0318 </r>
       <r>   -0.3856    1.0331 </r>
       <r>   -0.3796    1.0340 </r>
       <r>   -0.3557    1.0354 </r>
       <r>   -0.3454    1.0347 </r>
       <r>   -0.3407    1.0341 </r>
       <r>   -0.3150    1.0259 </r>
       <r>   -0.2961    1.0136 </r>
       <r>   -0.2663    0.9803 </r>
       <r>   -0.2561    0.9644 </r>
       <r>   -0.2385    0.9309 </r>
       <r>   -0.2135    0.8702 </r>
       <r>   -0.1963    0.8192 </r>
       <r>   -0.1954    0.8166 </r>
       <r>   -0.1878    0.7918 </r>
       <r>   -0.1751    0.7473 </r>
       <r>   -0.1662    0.7147 </r>
       <r>   -0.1327    0.5810 </r>
       <r>   -0.0992    0.4397 </r>
       <r>   -0.0878    0.3923 </r>
       <r>   -0.0718    0.3276 </r>
       <r>   -0.0384    0.2057 </r>
       <r>   -0.0214    0.1524 </r>
       <r>    0.0307    0.0331 </r>
       <r>    0.0559   -0.0011 </r>
       <r>    0.0792   -0.0209 </r>
       <r>    0.1031   -0.0317 </r>
       <r>    0.1077   -0.0329 </r>
       <r>    0.1482   -0.0345 </r>
       <r>    0.1601   -0.0329 </r>
       <r>    0.1938   -0.0260 </r>
       <r>    0.2189   -0.0202 </r>
       <r>    0.2436   -0.0150 </r>
       <r>    0.2910   -0.0074 </r>
       <r>    0.3701   -0.0017 </r>
       <r>    0.4023   -0.0008 </r>
       <r>    0.4727   -0.0001 </r>
       <r>    0.4826   -0.0001 </r>
       <r>    0.5254   -0.0000 </r>
       <r>    0.6969   -0.0000 </r>
       <r>    0.7163   -0.0000 </r>
       <r>    0.7449   -0.0000 </r>
       <r>    0.7676   -0.0000 </r>
       <r>    0.7866   -0.0000 </r>
       <r>    0.8735   -0.0000 </r>
       <r>    0.9792   -0.0000 </r>
       <r>    1.0011   -0.0000 </r>
       <r>    1.0127   -0.0000 </r>
       <r>    1.0771   -0.0000 </r>
       <r>    1.0882   -0.0000 </r>
       <r>    1.1290   -0.0000 </r>
       <r>    1.1778   -0.0000 </r>
       <r>    1.2581   -0.0000 </r>
       <r>    1.2886   -0.0000 </r>
       <r>    3.3527   -0.0000 </r>
       <r>    4.1842   -0.0000 </r>
       <r>    4.6555   -0.0000 </r>
       <r>    5.2759    0.0000 </r>
      </set>
     </set>
    </set>
   </array>
  </eigenvalues>
  <separator name="orbital magnetization" >
   <v name="MAGDIPOLOUT">      0.00000000      0.00000000      0.00000000</v>
  </separator>
  <dos>
   <i name="efermi">     -0.11348781 </i>
   <total>
    <array>
     <dimension dim="1">gridpoints</dimension>
     <dimension dim="2">spin</dimension>
     <field>energy</field>
     <field>total</field>
     <field>integrated</field>
     <set>
      <set comment="spin 1">
       <r>   -25.8798     0.0000     0.0000 </r>
       <r>   -25.7693     0.0000     0.0000 </r>
       <r>   -25.6588     0.0000     0.0000 </r>
       <r>   -25.5483    -0.0000    -0.0000 </r>
       <r>   -25.4378    -0.0000    -0.0000 </r>
       <r>   -25.3272    -0.0000    -0.0000 </r>
       <r>   -25.2167    -0.0000    -0.0000 </r>
       <r>   -25.1062    -0.0000    -0.0000 </r>
       <r>   -24.9957    -0.0000    -0.0000 </r>
       <r>   -24.8852    -0.0000    -0.0000 </r>
       <r>   -24.7747    -0.0000    -0.0000 </r>
       <r>   -24.6641    -0.0000    -0.0000 </r>
       <r>   -24.5536    -0.0002    -0.0000 </r>
       <r>   -24.4431    -0.0060    -0.0007 </r>
       <r>   -24.3326    -0.0803    -0.0096 </r>
       <r>   -24.2221    -0.5227    -0.0673 </r>
       <r>   -24.1115    -1.3330    -0.2147 </r>
       <r>   -24.0010     1.0447    -0.0992 </r>
       <r>   -23.8905    13.0356     1.3415 </r>
       <r>   -23.7800    31.9663     4.8744 </r>
       <r>   -23.6695    47.8422    10.1618 </r>
       <r>   -23.5589    56.0504    16.3565 </r>
       <r>   -23.4484    50.2993    21.9155 </r>
       <r>   -23.3379    38.6756    26.1899 </r>
       <r>   -23.2274    48.2148    31.5186 </r>
       <r>   -23.1169    73.4762    39.6391 </r>
       <r>   -23.0063    79.6960    48.4470 </r>
       <r>   -22.8958    57.7933    54.8343 </r>
       <r>   -22.7853    36.6226    58.8818 </r>
       <r>   -22.6748    27.5597    61.9277 </r>
       <r>   -22.5643    16.1215    63.7094 </r>
       <r>   -22.4538     4.1513    64.1682 </r>
       <r>   -22.3432    -0.6357    64.0979 </r>
       <r>   -22.2327    -0.6915    64.0215 </r>
       <r>   -22.1222    -0.1735    64.0023 </r>
       <r>   -22.0117    -0.0200    64.0001 </r>
       <r>   -21.9012    -0.0012    64.0000 </r>
       <r>   -21.7906    -0.0000    64.0000 </r>
       <r>   -21.6801    -0.0000    64.0000 </r>
       <r>   -21.5696    -0.0000    64.0000 </r>
       <r>   -21.4591    -0.0000    64.0000 </r>
       <r>   -21.3486    -0.0000    64.0000 </r>
       <r>   -21.2380     0.0000    64.0000 </r>
       <r>   -21.1275     0.0000    64.0000 </r>
       <r>   -21.0170     0.0000    64.0000 </r>
       <r>   -20.9065     0.0000    64.0000 </r>
       <r>   -20.7960     0.0000    64.0000 </r>
       <r>   -20.6854     0.0000    64.0000 </r>
       <r>   -20.5749    -0.0000    64.0000 </r>
       <r>   -20.4644    -0.0000    64.0000 </r>
       <r>   -20.3539    -0.0000    64.0000 </r>
       <r>   -20.2434    -0.0000    64.0000 </r>
       <r>   -20.1329    -0.0000    64.0000 </r>
       <r>   -20.0223    -0.0000    64.0000 </r>
       <r>   -19.9118    -0.0000    64.0000 </r>
       <r>   -19.8013    -0.0000    64.0000 </r>
       <r>   -19.6908    -0.0000    64.0000 </r>
       <r>   -19.5803    -0.0001    64.0000 </r>
       <r>   -19.4697    -0.0035    63.9996 </r>
       <r>   -19.3592    -0.0472    63.9944 </r>
       <r>   -19.2487    -0.3079    63.9604 </r>
       <r>   -19.1382    -0.7780    63.8744 </r>
       <r>   -19.0277     0.6991    63.9516 </r>
       <r>   -18.9171     8.2224    64.8604 </r>
       <r>   -18.8066    20.1982    67.0927 </r>
       <r>   -18.6961    25.6242    69.9246 </r>
       <r>   -18.5856    16.6848    71.7686 </r>
       <r>   -18.4751     3.8267    72.1915 </r>
       <r>   -18.3645    -0.9606    72.0854 </r>
       <r>   -18.2540    -0.6429    72.0143 </r>
       <r>   -18.1435    -0.1191    72.0012 </r>
       <r>   -18.0330    -0.0101    72.0000 </r>
       <r>   -17.9225    -0.0004    72.0000 </r>
       <r>   -17.8119    -0.0000    72.0000 </r>
       <r>   -17.7014    -0.0000    72.0000 </r>
       <r>   -17.5909    -0.0000    72.0000 </r>
       <r>   -17.4804    -0.0000    72.0000 </r>
       <r>   -17.3699    -0.0000    72.0000 </r>
       <r>   -17.2594     0.0000    72.0000 </r>
       <r>   -17.1488     0.0000    72.0000 </r>
       <r>   -17.0383     0.0000    72.0000 </r>
       <r>   -16.9278     0.0000    72.0000 </r>
       <r>   -16.8173     0.0000    72.0000 </r>
       <r>   -16.7068     0.0000    72.0000 </r>
       <r>   -16.5962     0.0000    72.0000 </r>
       <r>   -16.4857     0.0000    72.0000 </r>
       <r>   -16.3752     0.0000    72.0000 </r>
       <r>   -16.2647     0.0000    72.0000 </r>
       <r>   -16.1542     0.0000    72.0000 </r>
       <r>   -16.0436     0.0000    72.0000 </r>
       <r>   -15.9331     0.0000    72.0000 </r>
       <r>   -15.8226     0.0000    72.0000 </r>
       <r>   -15.7121     0.0000    72.0000 </r>
       <r>   -15.6016     0.0000    72.0000 </r>
       <r>   -15.4910     0.0000    72.0000 </r>
       <r>   -15.3805     0.0000    72.0000 </r>
       <r>   -15.2700     0.0000    72.0000 </r>
       <r>   -15.1595     0.0000    72.0000 </r>
       <r>   -15.0490     0.0000    72.0000 </r>
       <r>   -14.9385     0.0000    72.0000 </r>
       <r>   -14.8279     0.0000    72.0000 </r>
       <r>   -14.7174     0.0000    72.0000 </r>
       <r>   -14.6069     0.0000    72.0000 </r>
       <r>   -14.4964     0.0000    72.0000 </r>
       <r>   -14.3859     0.0000    72.0000 </r>
       <r>   -14.2753     0.0000    72.0000 </r>
       <r>   -14.1648     0.0000    72.0000 </r>
       <r>   -14.0543     0.0000    72.0000 </r>
       <r>   -13.9438     0.0000    72.0000 </r>
       <r>   -13.8333     0.0000    72.0000 </r>
       <r>   -13.7227     0.0000    72.0000 </r>
       <r>   -13.6122     0.0000    72.0000 </r>
       <r>   -13.5017     0.0000    72.0000 </r>
       <r>   -13.3912     0.0000    72.0000 </r>
       <r>   -13.2807     0.0000    72.0000 </r>
       <r>   -13.1701     0.0000    72.0000 </r>
       <r>   -13.0596     0.0000    72.0000 </r>
       <r>   -12.9491     0.0000    72.0000 </r>
       <r>   -12.8386     0.0000    72.0000 </r>
       <r>   -12.7281     0.0000    72.0000 </r>
       <r>   -12.6175     0.0000    72.0000 </r>
       <r>   -12.5070     0.0000    72.0000 </r>
       <r>   -12.3965     0.0000    72.0000 </r>
       <r>   -12.2860     0.0000    72.0000 </r>
       <r>   -12.1755     0.0000    72.0000 </r>
       <r>   -12.0650     0.0000    72.0000 </r>
       <r>   -11.9544     0.0000    72.0000 </r>
       <r>   -11.8439     0.0000    72.0000 </r>
       <r>   -11.7334     0.0000    72.0000 </r>
       <r>   -11.6229     0.0000    72.0000 </r>
       <r>   -11.5124     0.0000    72.0000 </r>
       <r>   -11.4018     0.0000    72.0000 </r>
       <r>   -11.2913     0.0000    72.0000 </r>
       <r>   -11.1808     0.0000    72.0000 </r>
       <r>   -11.0703     0.0000    72.0000 </r>
       <r>   -10.9598     0.0000    72.0000 </r>
       <r>   -10.8492     0.0000    72.0000 </r>
       <r>   -10.7387     0.0000    72.0000 </r>
       <r>   -10.6282     0.0000    72.0000 </r>
       <r>   -10.5177     0.0000    72.0000 </r>
       <r>   -10.4072     0.0000    72.0000 </r>
       <r>   -10.2966     0.0000    72.0000 </r>
       <r>   -10.1861     0.0000    72.0000 </r>
       <r>   -10.0756     0.0000    72.0000 </r>
       <r>    -9.9651     0.0000    72.0000 </r>
       <r>    -9.8546     0.0000    72.0000 </r>
       <r>    -9.7441     0.0000    72.0000 </r>
       <r>    -9.6335     0.0000    72.0000 </r>
       <r>    -9.5230     0.0000    72.0000 </r>
       <r>    -9.4125     0.0000    72.0000 </r>
       <r>    -9.3020     0.0000    72.0000 </r>
       <r>    -9.1915     0.0000    72.0000 </r>
       <r>    -9.0809     0.0000    72.0000 </r>
       <r>    -8.9704     0.0000    72.0000 </r>
       <r>    -8.8599     0.0000    72.0000 </r>
       <r>    -8.7494     0.0000    72.0000 </r>
       <r>    -8.6389    -0.0000    72.0000 </r>
       <r>    -8.5283    -0.0000    72.0000 </r>
       <r>    -8.4178    -0.0000    72.0000 </r>
       <r>    -8.3073    -0.0000    72.0000 </r>
       <r>    -8.1968    -0.0000    72.0000 </r>
       <r>    -8.0863    -0.0000    72.0000 </r>
       <r>    -7.9757    -0.0000    72.0000 </r>
       <r>    -7.8652    -0.0000    72.0000 </r>
       <r>    -7.7547    -0.0000    72.0000 </r>
       <r>    -7.6442    -0.0005    71.9999 </r>
       <r>    -7.5337    -0.0117    71.9986 </r>
       <r>    -7.4231    -0.1352    71.9837 </r>
       <r>    -7.3126    -0.7210    71.9040 </r>
       <r>    -7.2021    -1.2038    71.7710 </r>
       <r>    -7.0916     3.1985    72.1245 </r>
       <r>    -6.9811    17.1795    74.0231 </r>
       <r>    -6.8706    35.9683    77.9983 </r>
       <r>    -6.7600    46.6098    83.1496 </r>
       <r>    -6.6495    34.9425    87.0114 </r>
       <r>    -6.5390    15.4298    88.7167 </r>
       <r>    -6.4285    13.2624    90.1824 </r>
       <r>    -6.3180    24.2431    92.8618 </r>
       <r>    -6.2074    45.0815    97.8441 </r>
       <r>    -6.0969    72.1849   105.8219 </r>
       <r>    -5.9864    88.4696   115.5995 </r>
       <r>    -5.8759    89.7373   125.5172 </r>
       <r>    -5.7654    86.0025   135.0221 </r>
       <r>    -5.6548    86.6949   144.6036 </r>
       <r>    -5.5443    82.4908   153.7204 </r>
       <r>    -5.4338    62.5508   160.6335 </r>
       <r>    -5.3233    41.0560   165.1709 </r>
       <r>    -5.2128    37.9293   169.3628 </r>
       <r>    -5.1022    49.4434   174.8273 </r>
       <r>    -4.9917    54.3134   180.8300 </r>
       <r>    -4.8812    45.8724   185.8997 </r>
       <r>    -4.7707    43.9235   190.7541 </r>
       <r>    -4.6602    59.6352   197.3450 </r>
       <r>    -4.5497    79.5438   206.1361 </r>
       <r>    -4.4391    84.8378   215.5123 </r>
       <r>    -4.3286    72.0475   223.4749 </r>
       <r>    -4.2181    59.7683   230.0805 </r>
       <r>    -4.1076    63.3475   237.0816 </r>
       <r>    -3.9971    73.7846   245.2362 </r>
       <r>    -3.8865    81.8562   254.2829 </r>
       <r>    -3.7760    83.7566   263.5396 </r>
       <r>    -3.6655    70.7522   271.3590 </r>
       <r>    -3.5550    56.5221   277.6058 </r>
       <r>    -3.4445    50.9918   283.2414 </r>
       <r>    -3.3339    34.9721   287.1065 </r>
       <r>    -3.2234    10.9218   288.3135 </r>
       <r>    -3.1129    -0.8965   288.2145 </r>
       <r>    -3.0024    -1.5070   288.0479 </r>
       <r>    -2.8919    -0.3865   288.0052 </r>
       <r>    -2.7813    -0.0443   288.0003 </r>
       <r>    -2.6708    -0.0026   288.0000 </r>
       <r>    -2.5603    -0.0001   288.0000 </r>
       <r>    -2.4498    -0.0000   288.0000 </r>
       <r>    -2.3393    -0.0000   288.0000 </r>
       <r>    -2.2288    -0.0000   288.0000 </r>
       <r>    -2.1182    -0.0000   288.0000 </r>
       <r>    -2.0077    -0.0000   288.0000 </r>
       <r>    -1.8972    -0.0000   288.0000 </r>
       <r>    -1.7867    -0.0000   288.0000 </r>
       <r>    -1.6762    -0.0000   288.0000 </r>
       <r>    -1.5656    -0.0001   288.0000 </r>
       <r>    -1.4551    -0.0021   287.9998 </r>
       <r>    -1.3446    -0.0420   287.9951 </r>
       <r>    -1.2341    -0.4222   287.9485 </r>
       <r>    -1.1236    -1.9831   287.7293 </r>
       <r>    -1.0130    -2.6834   287.4327 </r>
       <r>    -0.9025    10.1983   288.5598 </r>
       <r>    -0.7920    46.9920   293.7533 </r>
       <r>    -0.6815    88.3515   303.5179 </r>
       <r>    -0.5710   111.6091   315.8528 </r>
       <r>    -0.4604   129.2155   330.1336 </r>
       <r>    -0.3499   145.8408   346.2518 </r>
       <r>    -0.2394   139.5637   361.6763 </r>
       <r>    -0.1289   115.5982   374.4521 </r>
       <r>    -0.0184    91.2821   384.5405 </r>
       <r>     0.0922    79.0255   393.2743 </r>
       <r>     0.2027    72.0888   401.2415 </r>
       <r>     0.3132    56.2830   407.4619 </r>
       <r>     0.4237    42.0998   412.1147 </r>
       <r>     0.5342    34.1940   415.8938 </r>
       <r>     0.6447    31.2102   419.3431 </r>
       <r>     0.7553    38.6113   423.6104 </r>
       <r>     0.8658    41.8037   428.2305 </r>
       <r>     0.9763    41.8823   432.8593 </r>
       <r>     1.0868    48.6754   438.2389 </r>
       <r>     1.1973    46.4991   443.3779 </r>
       <r>     1.3079    30.6996   446.7708 </r>
       <r>     1.4184    12.0859   448.1065 </r>
       <r>     1.5289     0.8779   448.2035 </r>
       <r>     1.6394    -1.2778   448.0623 </r>
       <r>     1.7499    -0.4862   448.0086 </r>
       <r>     1.8605    -0.0723   448.0006 </r>
       <r>     1.9710    -0.0052   448.0000 </r>
       <r>     2.0815    -0.0002   448.0000 </r>
       <r>     2.1920    -0.0000   448.0000 </r>
       <r>     2.3025    -0.0000   448.0000 </r>
       <r>     2.4131    -0.0000   448.0000 </r>
       <r>     2.5236    -0.0000   448.0000 </r>
       <r>     2.6341    -0.0000   448.0000 </r>
       <r>     2.7446    -0.0013   447.9999 </r>
       <r>     2.8551    -0.0208   447.9976 </r>
       <r>     2.9656    -0.1552   447.9804 </r>
       <r>     3.0762    -0.4088   447.9352 </r>
       <r>     3.1867     0.6343   448.0053 </r>
       <r>     3.2972     4.9272   448.5499 </r>
       <r>     3.4077     8.1151   449.4468 </r>
       <r>     3.5182     4.9479   449.9936 </r>
       <r>     3.6288     0.6399   450.0643 </r>
       <r>     3.7393    -0.4689   450.0125 </r>
       <r>     3.8498    -0.4486   449.9629 </r>
       <r>     3.9603    -0.2694   449.9331 </r>
       <r>     4.0708     2.3283   450.1905 </r>
       <r>     4.1814     7.0685   450.9717 </r>
       <r>     4.2919     7.0719   451.7533 </r>
       <r>     4.4024     2.1774   451.9939 </r>
       <r>     4.5129     1.0837   452.1137 </r>
       <r>     4.6234     5.6747   452.7408 </r>
       <r>     4.7340     7.8717   453.6108 </r>
       <r>     4.8445     3.7714   454.0276 </r>
       <r>     4.9550    -0.1612   454.0098 </r>
       <r>     5.0655    -0.5037   453.9541 </r>
       <r>     5.1760     2.7857   454.2620 </r>
       <r>     5.2866     7.4929   455.0901 </r>
       <r>     5.3971     6.8328   455.8453 </r>
       <r>     5.5076     2.0283   456.0694 </r>
       <r>     5.6181    -0.3013   456.0361 </r>
       <r>     5.7286    -0.2706   456.0062 </r>
       <r>     5.8391    -0.0518   456.0005 </r>
       <r>     5.9497    -0.0044   456.0000 </r>
       <r>     6.0602    -0.0002   456.0000 </r>
       <r>     6.1707    -0.0000   456.0000 </r>
       <r>     6.2812    -0.0000   456.0000 </r>
       <r>     6.3917    -0.0000   456.0000 </r>
       <r>     6.5023    -0.0000   456.0000 </r>
       <r>     6.6128     0.0000   456.0000 </r>
       <r>     6.7233     0.0000   456.0000 </r>
       <r>     6.8338     0.0000   456.0000 </r>
       <r>     6.9443     0.0000   456.0000 </r>
       <r>     7.0549     0.0000   456.0000 </r>
       <r>     7.1654     0.0000   456.0000 </r>
       <r>     7.2759     0.0000   456.0000 </r>
      </set>
     </set>
    </array>
   </total>
  </dos>
 </calculation>
 <structure name="finalpos" >
  <crystal>
   <varray name="basis" >
    <v>       9.40119100       0.00000000      -0.08412900 </v>
    <v>       0.00000000       5.35946700       0.01963200 </v>
    <v>       0.00000000       0.00000000      14.95565100 </v>
   </varray>
   <i name="volume">    753.54605297 </i>
   <varray name="rec_basis" >
    <v>       0.10636950       0.00000000       0.00000000 </v>
    <v>       0.00000000       0.18658572       0.00000000 </v>
    <v>       0.00059835      -0.00024493       0.06686436 </v>
   </varray>
  </crystal>
  <varray name="positions" >
   <v>       0.16411200       0.48397600       0.17995900 </v>
   <v>       0.16411200       0.51602400       0.67995900 </v>
   <v>       0.66411200       0.98397600       0.17995900 </v>
   <v>       0.66411200       0.01602400       0.67995900 </v>
   <v>       0.17533200       0.47285200       0.97303200 </v>
   <v>       0.17533200       0.52714800       0.47303200 </v>
   <v>       0.67533200       0.97285200       0.97303200 </v>
   <v>       0.67533200       0.02714800       0.47303200 </v>
   <v>       0.33162900       0.02941400       0.82240100 </v>
   <v>       0.33162900       0.97058600       0.32240100 </v>
   <v>       0.83162900       0.52941400       0.82240100 </v>
   <v>       0.83162900       0.47058600       0.32240100 </v>
   <v>       0.33361900       0.00432000       0.51711500 </v>
   <v>       0.33361900       0.99568000       0.01711500 </v>
   <v>       0.83361900       0.50432000       0.51711500 </v>
   <v>       0.83361900       0.49568000       0.01711500 </v>
   <v>       0.30522400       0.26740800       0.92544800 </v>
   <v>       0.30926400       0.73259200       0.42544800 </v>
   <v>       0.80926400       0.76740800       0.92544800 </v>
   <v>       0.80050100       0.23259200       0.42544800 </v>
   <v>       0.00386100       0.36884200       0.24394900 </v>
   <v>       0.00386100       0.63115800       0.74394900 </v>
   <v>       0.50386100       0.86884200       0.24394900 </v>
   <v>       0.50386100       0.13115800       0.74394900 </v>
   <v>       0.02591400       0.39537700       0.57915900 </v>
   <v>       0.02591400       0.60462300       0.07915900 </v>
   <v>       0.52591400       0.89537700       0.58805000 </v>
   <v>       0.52591400       0.10462300       0.07915900 </v>
   <v>       0.17611800       0.21417000       0.08350500 </v>
   <v>       0.17611800       0.78583000       0.58350500 </v>
   <v>       0.67611800       0.71417000       0.08350500 </v>
   <v>       0.67611800       0.28583000       0.58350500 </v>
   <v>       0.18147400       0.20344500       0.73945400 </v>
   <v>       0.18147400       0.79655500       0.23945400 </v>
   <v>       0.68701700       0.70344500       0.73945400 </v>
   <v>       0.68147400       0.29655500       0.23945400 </v>
   <v>       0.18900300       0.20186000       0.42366300 </v>
   <v>       0.18900300       0.79814000       0.92298500 </v>
   <v>       0.68900300       0.70186000       0.42366300 </v>
   <v>       0.68900300       0.29814000       0.92366300 </v>
   <v>       0.29347700       0.34357400       0.57827500 </v>
   <v>       0.29347700       0.65313200       0.07827500 </v>
   <v>       0.79347700       0.84686800       0.56870200 </v>
   <v>       0.79347700       0.15313200       0.07827500 </v>
   <v>       0.30310600       0.30561100       0.25030200 </v>
   <v>       0.30310600       0.69270800       0.74801900 </v>
   <v>       0.80310600       0.80561100       0.24801900 </v>
   <v>       0.80938000       0.19438900       0.74801900 </v>
   <v>       0.48332800       0.13464800       0.42295500 </v>
   <v>       0.49071400       0.86535200       0.92295500 </v>
   <v>       0.99071400       0.63464800       0.41550100 </v>
   <v>       0.99071400       0.36535200       0.92295500 </v>
  </varray>
 </structure>
</modeling>
