<?xml version="1.0" encoding="ISO-8859-1"?>
<modeling>
 <generator>
  <i name="program" type="string">vasp </i>
  <i name="version" type="string">5.3.5  </i>
  <i name="subversion" type="string">31Mar14 (build Aug 29 2014 19:41:47) complex                          parallel </i>
  <i name="platform" type="string">LinuxIFC </i>
  <i name="date" type="string">2019 04 11 </i>
  <i name="time" type="string">16:23:34 </i>
 </generator>
 <incar>
  <i type="string" name="SYSTEM"> Fe6OF11_var_30</i>
  <i type="int" name="ISTART">     0</i>
  <i type="string" name="PREC">normal</i>
  <i type="string" name="ALGO"> VeryFast</i>
  <i type="int" name="ISPIN">     1</i>
  <i type="int" name="ICHARG">     2</i>
  <i type="int" name="NELM">   300</i>
  <i type="int" name="ISYM">     0</i>
  <i type="logical" name="LWAVE"> F  </i>
  <i type="int" name="NELM">   300</i>
 </incar>
 <kpoints>
  <generation param="Gamma">
   <v type="int" name="divisions">       1        1        1 </v>
   <v name="usershift">      0.00000000       0.00000000       0.00000000 </v>
   <v name="genvec1">      1.00000000      -0.00000000      -0.00000000 </v>
   <v name="genvec2">      0.00000000       1.00000000      -0.00000000 </v>
   <v name="genvec3">      0.00000000       0.00000000       1.00000000 </v>
   <v name="shift">      0.00000000       0.00000000       0.00000000 </v>
  </generation>
  <varray name="kpointlist" >
   <v>       0.00000000       0.00000000       0.00000000 </v>
  </varray>
  <varray name="weights" >
   <v>       1.00000000 </v>
  </varray>
 </kpoints>
 <parameters>
  <separator name="general" >
   <i type="string" name="SYSTEM">Fe6OF11_var_30</i>
   <i type="logical" name="LCOMPAT"> F  </i>
  </separator>
  <separator name="electronic" >
   <i type="string" name="PREC">normal</i>
   <i name="ENMAX">    400.00000000</i>
   <i name="ENAUG">    613.61400000</i>
   <i name="EDIFF">      0.00010000</i>
   <i type="int" name="IALGO">    48</i>
   <i type="int" name="IWAVPR">    10</i>
   <i type="int" name="NBANDS">   160</i>
   <i name="NELECT">    262.00000000</i>
   <i type="int" name="TURBO">     0</i>
   <i type="int" name="IRESTART">     0</i>
   <i type="int" name="NREBOOT">     0</i>
   <i type="int" name="NMIN">     0</i>
   <i name="EREF">      0.00000000</i>
   <separator name="electronic smearing" >
    <i type="int" name="ISMEAR">     1</i>
    <i name="SIGMA">      0.20000000</i>
    <i name="KSPACING">      0.50000000</i>
    <i type="logical" name="KGAMMA"> T  </i>
   </separator>
   <separator name="electronic projectors" >
    <i type="logical" name="LREAL"> F  </i>
    <v name="ROPT">      0.00000000      0.00000000      0.00000000</v>
    <i type="int" name="LMAXPAW">  -100</i>
    <i type="int" name="LMAXMIX">     2</i>
    <i type="logical" name="NLSPLINE"> F  </i>
   </separator>
   <separator name="electronic startup" >
    <i type="int" name="ISTART">     0</i>
    <i type="int" name="ICHARG">     2</i>
    <i type="int" name="INIWAV">     1</i>
   </separator>
   <separator name="electronic spin" >
    <i type="int" name="ISPIN">     1</i>
    <i type="logical" name="LNONCOLLINEAR"> F  </i>
    <v name="MAGMOM">      1.00000000      1.00000000      1.00000000      1.00000000      1.00000000      1.00000000      1.00000000      1.00000000      1.00000000      1.00000000      1.00000000      1.00000000      1.00000000      1.00000000      1.00000000      1.00000000      1.00000000      1.00000000      1.00000000      1.00000000
      1.00000000      1.00000000      1.00000000      1.00000000      1.00000000      1.00000000      1.00000000      1.00000000      1.00000000      1.00000000      1.00000000      1.00000000      1.00000000      1.00000000      1.00000000      1.00000000</v>
    <i name="NUPDOWN">     -1.00000000</i>
    <i type="logical" name="LSORBIT"> F  </i>
    <v name="SAXIS">      0.00000000      0.00000000      1.00000000</v>
    <i type="logical" name="LSPIRAL"> F  </i>
    <v name="QSPIRAL">      0.00000000      0.00000000      0.00000000</v>
    <i type="logical" name="LZEROZ"> F  </i>
   </separator>
   <separator name="electronic exchange-correlation" >
    <i type="logical" name="LASPH"> F  </i>
    <i type="logical" name="LMETAGGA"> F  </i>
   </separator>
   <separator name="electronic convergence" >
    <i type="int" name="NELM">   300</i>
    <i type="int" name="NELMDL">   -12</i>
    <i type="int" name="NELMIN">     2</i>
    <i name="ENINI">    400.00000000</i>
    <separator name="electronic convergence detail" >
     <i type="logical" name="LDIAG"> T  </i>
     <i type="logical" name="LSUBROT"> F  </i>
     <i name="WEIMIN">      0.00000000</i>
     <i name="EBREAK">      0.00000016</i>
     <i name="DEPER">      0.30000000</i>
     <i type="int" name="NRMM">     4</i>
     <i name="TIME">      0.40000000</i>
    </separator>
   </separator>
   <separator name="electronic mixer" >
    <i name="AMIX">      0.40000000</i>
    <i name="BMIX">      1.00000000</i>
    <i name="AMIN">      0.10000000</i>
    <i name="AMIX_MAG">      1.60000000</i>
    <i name="BMIX_MAG">      1.00000000</i>
    <separator name="electronic mixer details" >
     <i type="int" name="IMIX">     4</i>
     <i type="int" name="MAXMIX">   -45</i>
     <i name="WC">    100.00000000</i>
     <i type="int" name="INIMIX">     1</i>
     <i type="int" name="MIXPRE">     1</i>
     <i type="int" name="MREMOVE">     5</i>
    </separator>
   </separator>
   <separator name="electronic dipolcorrection" >
    <i type="logical" name="LDIPOL"> F  </i>
    <i type="logical" name="LMONO"> F  </i>
    <i type="int" name="IDIPOL">     0</i>
    <i name="EPSILON">      1.00000000</i>
    <v name="DIPOL">   -100.00000000   -100.00000000   -100.00000000</v>
    <i name="EFIELD">      0.00000000</i>
   </separator>
  </separator>
  <separator name="grids" >
   <i type="int" name="NGX">    16</i>
   <i type="int" name="NGY">   108</i>
   <i type="int" name="NGZ">    36</i>
   <i type="int" name="NGXF">    32</i>
   <i type="int" name="NGYF">   216</i>
   <i type="int" name="NGZF">    72</i>
   <i type="logical" name="ADDGRID"> F  </i>
  </separator>
  <separator name="ionic" >
   <i type="int" name="NSW">     0</i>
   <i type="int" name="IBRION">    -1</i>
   <i type="int" name="ISIF">     2</i>
   <i name="PSTRESS">      0.00000000</i>
   <i name="EDIFFG">      0.00100000</i>
   <i type="int" name="NFREE">     0</i>
   <i name="POTIM">      0.50000000</i>
   <i name="SMASS">     -3.00000000</i>
   <i name="SCALEE">      1.00000000</i>
  </separator>
  <separator name="ionic md" >
   <i name="TEBEG">      0.00010000</i>
   <i name="TEEND">      0.00010000</i>
   <i type="int" name="NBLOCK">     1</i>
   <i type="int" name="KBLOCK">     1</i>
   <i type="int" name="NPACO">   256</i>
   <i name="APACO">     16.00000000</i>
  </separator>
  <separator name="symmetry" >
   <i type="int" name="ISYM">     0</i>
   <i name="SYMPREC">      0.00001000</i>
  </separator>
  <separator name="dos" >
   <i type="logical" name="LORBIT"> F  </i>
   <v name="RWIGS">     -1.00000000     -1.00000000     -1.00000000</v>
   <i type="int" name="NEDOS">   301</i>
   <i name="EMIN">     10.00000000</i>
   <i name="EMAX">    -10.00000000</i>
   <i name="EFERMI">      0.00000000</i>
  </separator>
  <separator name="writing" >
   <i type="int" name="NWRITE">     2</i>
   <i type="logical" name="LWAVE"> F  </i>
   <i type="logical" name="LCHARG"> T  </i>
   <i type="logical" name="LPARD"> F  </i>
   <i type="logical" name="LVTOT"> F  </i>
   <i type="logical" name="LVHAR"> F  </i>
   <i type="logical" name="LELF"> F  </i>
   <i type="logical" name="LOPTICS"> F  </i>
   <v name="STM">      0.00000000      0.00000000      0.00000000      0.00000000      0.00000000      0.00000000      0.00000000</v>
  </separator>
  <separator name="performance" >
   <i type="int" name="NPAR">     4</i>
   <i type="int" name="NSIM">     4</i>
   <i type="int" name="NBLK">    -1</i>
   <i type="logical" name="LPLANE"> T  </i>
   <i type="logical" name="LSCALAPACK"> T  </i>
   <i type="logical" name="LSCAAWARE"> F  </i>
   <i type="logical" name="LSCALU"> F  </i>
   <i type="logical" name="LASYNC"> F  </i>
   <i type="logical" name="LORBITALREAL"> F  </i>
  </separator>
  <separator name="miscellaneous" >
   <i type="int" name="IDIOT">     3</i>
   <i type="logical" name="LMUSIC"> F  </i>
   <v name="POMASS">     55.84700000     16.00000000     18.99800000</v>
   <v name="DARWINR">      0.00000000      0.00000000      0.00000000</v>
   <v name="DARWINV">      1.00000000      1.00000000      1.00000000</v>
   <i type="logical" name="LCORR"> T  </i>
  </separator>
  <i type="logical" name="GGA_COMPAT"> T  </i>
  <i type="logical" name="LBERRY"> F  </i>
  <i type="int" name="ICORELEVEL">     0</i>
  <i type="logical" name="LDAU"> F  </i>
  <i type="int" name="I_CONSTRAINED_M">     0</i>
  <separator name="electronic exchange-correlation" >
   <i type="string" name="GGA">--</i>
   <i type="int" name="VOSKOWN">     0</i>
   <i type="logical" name="LHFCALC"> F  </i>
   <i type="string" name="PRECFOCK"></i>
   <i type="logical" name="LSYMGRAD"> F  </i>
   <i type="logical" name="LHFONE"> F  </i>
   <i type="logical" name="LRHFCALC"> F  </i>
   <i type="logical" name="LTHOMAS"> F  </i>
   <i type="logical" name="LMODELHF"> F  </i>
   <i name="ENCUT4O">     -1.00000000</i>
   <i type="int" name="EXXOEP">     0</i>
   <i type="int" name="FOURORBIT">     0</i>
   <i name="AEXX">      0.00000000</i>
   <i name="HFALPHA">      0.00000000</i>
   <i name="MCALPHA">      0.00000000</i>
   <i name="ALDAX">      1.00000000</i>
   <i name="AGGAX">      1.00000000</i>
   <i name="ALDAC">      1.00000000</i>
   <i name="AGGAC">      1.00000000</i>
   <i type="int" name="NKREDX">     1</i>
   <i type="int" name="NKREDY">     1</i>
   <i type="int" name="NKREDZ">     1</i>
   <i type="logical" name="SHIFTRED"> F  </i>
   <i type="logical" name="ODDONLY"> F  </i>
   <i type="logical" name="EVENONLY"> F  </i>
   <i type="int" name="LMAXFOCK">     0</i>
   <i type="int" name="NMAXFOCKAE">     0</i>
   <i type="logical" name="LFOCKAEDFT"> F  </i>
   <i name="HFSCREEN">      0.00000000</i>
   <i name="HFSCREENC">      0.00000000</i>
   <i type="int" name="NBANDSGWLOW">     0</i>
  </separator>
  <separator name="vdW DFT" >
   <i type="logical" name="LUSE_VDW"> F  </i>
   <i name="Zab_VDW">     -0.84910000</i>
   <i name="PARAM1">      0.12340000</i>
   <i name="PARAM2">      1.00000000</i>
   <i name="PARAM3">      0.00000000</i>
  </separator>
  <separator name="model GW" >
   <i type="int" name="MODEL_GW">     0</i>
   <i name="MODEL_EPS0">      7.58046543</i>
   <i name="MODEL_ALPHA">      1.00000000</i>
  </separator>
  <separator name="linear response parameters" >
   <i type="logical" name="LEPSILON"> F  </i>
   <i type="logical" name="LRPA"> F  </i>
   <i type="logical" name="LNABLA"> F  </i>
   <i type="logical" name="LVEL"> F  </i>
   <i type="int" name="KINTER">     0</i>
   <i name="CSHIFT">      0.10000000</i>
   <i name="OMEGAMAX">     -1.00000000</i>
   <i name="DEG_THRESHOLD">      0.00200000</i>
  </separator>
  <separator name="orbital magnetization" >
   <i type="logical" name="NUCIND"> F  </i>
   <v name="MAGPOS">      0.00000000      0.00000000      0.00000000</v>
   <i type="logical" name="LNICSALL"> T  </i>
   <i type="logical" name="ORBITALMAG"> F  </i>
   <i type="logical" name="LMAGBLOCH"> F  </i>
   <i type="logical" name="LCHIMAG"> F  </i>
   <i type="logical" name="LGAUGE"> T  </i>
   <i type="int" name="MAGATOM">     0</i>
   <v name="MAGDIPOL">      0.00000000      0.00000000      0.00000000</v>
   <v name="AVECCONST">      0.00000000      0.00000000      0.00000000</v>
  </separator>
  <separator name="response functions" >
   <i type="logical" name="LADDER"> F  </i>
   <i type="logical" name="LFXC"> F  </i>
   <i type="logical" name="LHARTREE"> T  </i>
   <i type="int" name="IBSE">     0</i>
   <i type="logical" name="LTCTE"> F  </i>
   <i type="logical" name="LTETE"> F  </i>
   <i type="logical" name="LTRIPLET"> F  </i>
   <i type="logical" name="LFXCEPS"> F  </i>
   <i type="logical" name="LFXHEG"> F  </i>
   <i type="logical" name="L2ORDER"> F  </i>
   <i type="logical" name="LUSEW"> F  </i>
   <i name="ENCUTGW">     -2.00000000</i>
   <i name="ENCUTGWSOFT">     -2.00000000</i>
   <i name="ENCUTLF">     -1.00000000</i>
   <i type="int" name="LMAXMP2">    -1</i>
   <i name="SCISSOR">      0.00000000</i>
   <i type="int" name="NOMEGA">     0</i>
   <i type="int" name="NOMEGAR">     0</i>
   <i type="int" name="NBANDSGW">    -1</i>
   <i type="int" name="NBANDSO">    -1</i>
   <i type="int" name="NBANDSV">    -1</i>
   <i type="int" name="NELM">   300</i>
   <i type="int" name="DIM">     3</i>
   <i type="int" name="ANTIRES">     0</i>
   <i name="OMEGAMAX">    -30.00000000</i>
   <i name="OMEGAMIN">    -30.00000000</i>
   <i name="OMEGATL">   -200.00000000</i>
   <i type="int" name="OMEGAGRID">     0</i>
   <i name="CSHIFT">     -0.10000000</i>
   <i type="logical" name="SELFENERGY"> F  </i>
   <i type="logical" name="LSPECTRAL"> F  </i>
   <i type="logical" name="ODDONLYGW"> F  </i>
   <i type="logical" name="EVENONLYGW"> F  </i>
   <i type="int" name="NKREDLFX">     1</i>
   <i type="int" name="NKREDLFY">     1</i>
   <i type="int" name="NKREDLFZ">     1</i>
   <i type="int" name="MAXMEM">  1800</i>
   <i type="int" name="TELESCOPE">     0</i>
   <i type="int" name="TAUPAR">     1</i>
  </separator>
  <separator name="External order field" >
   <i name="OFIELD_KAPPA">      0.00000000</i>
   <v name="OFIELD_K">      0.00000000      0.00000000      0.00000000</v>
   <i name="OFIELD_Q6_NEAR">      0.00000000</i>
   <i name="OFIELD_Q6_FAR">      0.00000000</i>
   <i name="OFIELD_A">      0.00000000</i>
  </separator>
 </parameters>
 <atominfo>
  <atoms>      36 </atoms>
  <types>       3 </types>
  <array name="atoms" >
   <dimension dim="1">ion</dimension>
   <field type="string">element</field>
   <field type="int">atomtype</field>
   <set>
    <rc><c>Fe</c><c>   1</c></rc>
    <rc><c>Fe</c><c>   1</c></rc>
    <rc><c>Fe</c><c>   1</c></rc>
    <rc><c>Fe</c><c>   1</c></rc>
    <rc><c>Fe</c><c>   1</c></rc>
    <rc><c>Fe</c><c>   1</c></rc>
    <rc><c>Fe</c><c>   1</c></rc>
    <rc><c>Fe</c><c>   1</c></rc>
    <rc><c>Fe</c><c>   1</c></rc>
    <rc><c>Fe</c><c>   1</c></rc>
    <rc><c>Fe</c><c>   1</c></rc>
    <rc><c>Fe</c><c>   1</c></rc>
    <rc><c>O </c><c>   2</c></rc>
    <rc><c>O </c><c>   2</c></rc>
    <rc><c>F </c><c>   3</c></rc>
    <rc><c>F </c><c>   3</c></rc>
    <rc><c>F </c><c>   3</c></rc>
    <rc><c>F </c><c>   3</c></rc>
    <rc><c>F </c><c>   3</c></rc>
    <rc><c>F </c><c>   3</c></rc>
    <rc><c>F </c><c>   3</c></rc>
    <rc><c>F </c><c>   3</c></rc>
    <rc><c>F </c><c>   3</c></rc>
    <rc><c>F </c><c>   3</c></rc>
    <rc><c>F </c><c>   3</c></rc>
    <rc><c>F </c><c>   3</c></rc>
    <rc><c>F </c><c>   3</c></rc>
    <rc><c>F </c><c>   3</c></rc>
    <rc><c>F </c><c>   3</c></rc>
    <rc><c>F </c><c>   3</c></rc>
    <rc><c>F </c><c>   3</c></rc>
    <rc><c>F </c><c>   3</c></rc>
    <rc><c>F </c><c>   3</c></rc>
    <rc><c>F </c><c>   3</c></rc>
    <rc><c>F </c><c>   3</c></rc>
    <rc><c>F </c><c>   3</c></rc>
   </set>
  </array>
  <array name="atomtypes" >
   <dimension dim="1">type</dimension>
   <field type="int">atomspertype</field>
   <field type="string">element</field>
   <field>mass</field>
   <field>valence</field>
   <field type="string">pseudopotential</field>
   <set>
    <rc><c>  12</c><c>Fe</c><c>     55.84700000</c><c>      8.00000000</c><c>  PAW_PBE Fe 06Sep2000                  </c></rc>
    <rc><c>   2</c><c>O </c><c>     16.00000000</c><c>      6.00000000</c><c>  PAW_PBE O 08Apr2002                   </c></rc>
    <rc><c>  22</c><c>F </c><c>     18.99800000</c><c>      7.00000000</c><c>  PAW_PBE F 08Apr2002                   </c></rc>
   </set>
  </array>
 </atominfo>
 <structure name="initialpos" >
  <crystal>
   <varray name="basis" >
    <v>       3.25262800       0.02834900       0.00000000 </v>
    <v>       0.07126300      20.54938400       0.00000000 </v>
    <v>       0.05050500       0.00000000       6.80498300 </v>
   </varray>
   <i name="volume">    454.82792569 </i>
   <varray name="rec_basis" >
    <v>       0.30745300      -0.00106621      -0.00228184 </v>
    <v>      -0.00042415       0.04866473       0.00000315 </v>
    <v>       0.00000000       0.00000000       0.14695114 </v>
   </varray>
  </crystal>
  <varray name="positions" >
   <v>       0.00000000       0.16671900       0.50139100 </v>
   <v>       0.00000000       0.83328100       0.50139100 </v>
   <v>       0.00000000       0.66671900       0.00139100 </v>
   <v>       0.00000000       0.33328100       0.00139100 </v>
   <v>       0.50000000       0.16602100       0.00000400 </v>
   <v>       0.50000000       0.83827700       0.00000400 </v>
   <v>       0.50840000       0.66602100       0.50000400 </v>
   <v>       0.50000000       0.33397900       0.50001300 </v>
   <v>       0.00000000       0.00000000       0.01216200 </v>
   <v>       0.00000000       0.50000000       0.51216200 </v>
   <v>       0.50000000       0.00000000       0.47240000 </v>
   <v>       0.50000000       0.50000000       0.97811500 </v>
   <v>       0.00000000       0.00000000       0.31436200 </v>
   <v>       0.00000000       0.50000000       0.81436200 </v>
   <v>       0.00000000       0.16816900       0.20329900 </v>
   <v>       0.00242300       0.83183100       0.20329900 </v>
   <v>       0.00000000       0.66816900       0.70329900 </v>
   <v>       0.00983100       0.33183100       0.70329900 </v>
   <v>       0.00000000       0.17342800       0.79934600 </v>
   <v>       0.00000000       0.82971500       0.79934600 </v>
   <v>       0.00000000       0.66553700       0.29934600 </v>
   <v>       0.00000000       0.33161800       0.29934600 </v>
   <v>       0.50000000       0.06837200       0.99633700 </v>
   <v>       0.50000000       0.93162800       0.99633700 </v>
   <v>       0.50000000       0.56837200       0.49633700 </v>
   <v>       0.50000000       0.43162800       0.49633700 </v>
   <v>       0.50000000       0.09818400       0.50567900 </v>
   <v>       0.50000000       0.90181600       0.50567900 </v>
   <v>       0.50471100       0.59818400       0.00013100 </v>
   <v>       0.50000000       0.40181600       0.00567900 </v>
   <v>       0.50000000       0.22477700       0.50152500 </v>
   <v>       0.50000000       0.76594000       0.50152500 </v>
   <v>       0.50000000       0.73406000       0.00152500 </v>
   <v>       0.50000000       0.26278000       0.00152500 </v>
   <v>       0.00000000       0.00000000       0.69474100 </v>
   <v>       0.00000000       0.50000000       0.19474100 </v>
  </varray>
 </structure>
 <calculation>
  <scstep>
   <time name="diag">    0.36    0.52</time>
   <time name="diis">    0.60    0.61</time>
   <time name="orth">    0.06    0.07</time>
   <time name="total">    1.28    1.57</time>
   <energy>
    <i name="alphaZ">    941.83403358 </i>
    <i name="ewald"> -15966.80696484 </i>
    <i name="hartreedc">  -6712.57345578 </i>
    <i name="XCdc">    902.19011631 </i>
    <i name="pawpsdc">  19213.82102697 </i>
    <i name="pawaedc"> -19422.08171028 </i>
    <i name="eentropy">     -0.03012059 </i>
    <i name="bandstr">   1816.27799690 </i>
    <i name="atom">  22504.09828397 </i>
    <i name="e_fr_energy">   3276.72920623 </i>
    <i name="e_wo_entrp">   3276.75932683 </i>
    <i name="e_0_energy">   3276.73924643 </i>
   </energy>
  </scstep>
  <scstep>
   <time name="diag">    0.33    0.46</time>
   <time name="diis">    0.45    0.48</time>
   <time name="orth">    0.07    0.14</time>
   <time name="total">    0.86    1.09</time>
   <energy>
    <i name="e_fr_energy">   1037.11644364 </i>
    <i name="e_wo_entrp">   1037.10607139 </i>
    <i name="e_0_energy">   1037.11298622 </i>
   </energy>
  </scstep>
  <scstep>
   <time name="diag">    0.17    0.33</time>
   <time name="diis">    0.34    0.59</time>
   <time name="orth">    0.10    0.10</time>
   <time name="total">    0.61    1.02</time>
   <energy>
    <i name="e_fr_energy">    347.80393076 </i>
    <i name="e_wo_entrp">    347.68901538 </i>
    <i name="e_0_energy">    347.76562563 </i>
   </energy>
  </scstep>
  <scstep>
   <time name="diag">    0.24    0.34</time>
   <time name="diis">    0.32    0.56</time>
   <time name="orth">    0.03    0.03</time>
   <time name="total">    0.59    0.92</time>
   <energy>
    <i name="e_fr_energy">     68.04582104 </i>
    <i name="e_wo_entrp">     68.03004993 </i>
    <i name="e_0_energy">     68.04056400 </i>
   </energy>
  </scstep>
  <scstep>
   <time name="diag">    0.16    0.19</time>
   <time name="diis">    0.48    0.61</time>
   <time name="orth">    0.06    0.07</time>
   <time name="total">    0.69    0.87</time>
   <energy>
    <i name="e_fr_energy">    -86.21017424 </i>
    <i name="e_wo_entrp">    -86.24192946 </i>
    <i name="e_0_energy">    -86.22075931 </i>
   </energy>
  </scstep>
  <scstep>
   <time name="diag">    0.38    0.45</time>
   <time name="diis">    0.45    0.53</time>
   <time name="orth">    0.04    0.06</time>
   <time name="total">    0.88    1.04</time>
   <energy>
    <i name="e_fr_energy">   -157.61576690 </i>
    <i name="e_wo_entrp">   -157.62890925 </i>
    <i name="e_0_energy">   -157.62014769 </i>
   </energy>
  </scstep>
  <scstep>
   <time name="diag">    0.20    0.26</time>
   <time name="diis">    0.43    0.52</time>
   <time name="orth">    0.03    0.04</time>
   <time name="total">    0.66    0.82</time>
   <energy>
    <i name="e_fr_energy">   -192.89208311 </i>
    <i name="e_wo_entrp">   -193.01035319 </i>
    <i name="e_0_energy">   -192.93150647 </i>
   </energy>
  </scstep>
  <scstep>
   <time name="diag">    0.17    0.20</time>
   <time name="diis">    0.33    0.39</time>
   <time name="orth">    0.07    0.08</time>
   <time name="total">    0.57    0.67</time>
   <energy>
    <i name="e_fr_energy">   -207.06600870 </i>
    <i name="e_wo_entrp">   -207.25687090 </i>
    <i name="e_0_energy">   -207.12962943 </i>
   </energy>
  </scstep>
  <scstep>
   <time name="diag">    0.16    0.19</time>
   <time name="diis">    1.40    1.66</time>
   <time name="orth">    0.04    0.08</time>
   <time name="total">    1.60    1.94</time>
   <energy>
    <i name="e_fr_energy">   -221.65341282 </i>
    <i name="e_wo_entrp">   -221.89672318 </i>
    <i name="e_0_energy">   -221.73451627 </i>
   </energy>
  </scstep>
  <scstep>
   <time name="diag">    0.26    0.44</time>
   <time name="diis">    1.03    1.42</time>
   <time name="orth">    0.17    0.25</time>
   <time name="total">    1.47    2.11</time>
   <energy>
    <i name="e_fr_energy">   -221.96319405 </i>
    <i name="e_wo_entrp">   -222.17778477 </i>
    <i name="e_0_energy">   -222.03472429 </i>
   </energy>
  </scstep>
  <scstep>
   <time name="diag">    0.27    0.38</time>
   <time name="diis">    1.14    1.50</time>
   <time name="orth">    0.09    0.12</time>
   <time name="total">    1.50    2.00</time>
   <energy>
    <i name="e_fr_energy">   -222.33242219 </i>
    <i name="e_wo_entrp">   -222.46981899 </i>
    <i name="e_0_energy">   -222.37822113 </i>
   </energy>
  </scstep>
  <scstep>
   <time name="diag">    0.16    0.26</time>
   <time name="diis">    1.04    1.31</time>
   <time name="orth">    0.04    0.06</time>
   <time name="total">    1.29    1.75</time>
   <energy>
    <i name="e_fr_energy">   -222.52942747 </i>
    <i name="e_wo_entrp">   -222.65134352 </i>
    <i name="e_0_energy">   -222.57006615 </i>
   </energy>
  </scstep>
  <scstep>
   <time name="diag">    0.48    0.76</time>
   <time name="diis">    0.89    1.25</time>
   <time name="orth">    0.07    0.09</time>
   <time name="total">    1.61    2.35</time>
   <energy>
    <i name="e_fr_energy">   -207.93316982 </i>
    <i name="e_wo_entrp">   -207.97547306 </i>
    <i name="e_0_energy">   -207.94727090 </i>
   </energy>
  </scstep>
  <scstep>
   <time name="diag">    0.32    0.37</time>
   <time name="diis">    0.81    1.09</time>
   <time name="orth">    0.15    0.21</time>
   <time name="total">    1.63    2.08</time>
   <energy>
    <i name="e_fr_energy">   -242.08857865 </i>
    <i name="e_wo_entrp">   -241.98276784 </i>
    <i name="e_0_energy">   -242.05330838 </i>
   </energy>
  </scstep>
  <scstep>
   <time name="diag">    0.22    0.26</time>
   <time name="diis">    0.94    1.23</time>
   <time name="orth">    0.06    0.08</time>
   <time name="total">    1.39    1.80</time>
   <energy>
    <i name="e_fr_energy">   -272.55583209 </i>
    <i name="e_wo_entrp">   -272.62290451 </i>
    <i name="e_0_energy">   -272.57818956 </i>
   </energy>
  </scstep>
  <scstep>
   <time name="diag">    0.19    0.23</time>
   <time name="diis">    0.83    1.18</time>
   <time name="orth">    0.04    0.05</time>
   <time name="total">    1.35    1.84</time>
   <energy>
    <i name="e_fr_energy">   -208.04496412 </i>
    <i name="e_wo_entrp">   -208.07800977 </i>
    <i name="e_0_energy">   -208.05597934 </i>
   </energy>
  </scstep>
  <scstep>
   <time name="diag">    0.12    0.18</time>
   <time name="diis">    0.69    0.92</time>
   <time name="orth">    0.10    0.11</time>
   <time name="total">    1.16    1.50</time>
   <energy>
    <i name="e_fr_energy">   -212.19787609 </i>
    <i name="e_wo_entrp">   -212.02424195 </i>
    <i name="e_0_energy">   -212.13999804 </i>
   </energy>
  </scstep>
  <scstep>
   <time name="diag">    0.25    0.31</time>
   <time name="diis">    1.00    1.25</time>
   <time name="orth">    0.16    0.16</time>
   <time name="total">    1.77    2.30</time>
   <energy>
    <i name="e_fr_energy">   -236.26696460 </i>
    <i name="e_wo_entrp">   -236.13782030 </i>
    <i name="e_0_energy">   -236.22391650 </i>
   </energy>
  </scstep>
  <scstep>
   <time name="diag">    0.17    0.20</time>
   <time name="diis">    0.97    1.21</time>
   <time name="orth">    0.09    0.12</time>
   <time name="total">    1.50    1.81</time>
   <energy>
    <i name="e_fr_energy">   -223.61692886 </i>
    <i name="e_wo_entrp">   -223.57722430 </i>
    <i name="e_0_energy">   -223.60369400 </i>
   </energy>
  </scstep>
  <scstep>
   <time name="diag">    0.25    0.36</time>
   <time name="diis">    0.87    1.14</time>
   <time name="orth">    0.05    0.08</time>
   <time name="total">    1.34    1.82</time>
   <energy>
    <i name="e_fr_energy">   -217.80094844 </i>
    <i name="e_wo_entrp">   -217.70887722 </i>
    <i name="e_0_energy">   -217.77025804 </i>
   </energy>
  </scstep>
  <scstep>
   <time name="diag">    0.23    0.34</time>
   <time name="diis">    0.92    1.21</time>
   <time name="orth">    0.15    0.17</time>
   <time name="total">    1.51    1.97</time>
   <energy>
    <i name="e_fr_energy">   -207.82613606 </i>
    <i name="e_wo_entrp">   -207.75404958 </i>
    <i name="e_0_energy">   -207.80210723 </i>
   </energy>
  </scstep>
  <scstep>
   <time name="diag">    0.31    0.52</time>
   <time name="diis">    0.92    1.14</time>
   <time name="orth">    0.21    0.27</time>
   <time name="total">    1.62    2.17</time>
   <energy>
    <i name="e_fr_energy">   -226.40018168 </i>
    <i name="e_wo_entrp">   -226.47266282 </i>
    <i name="e_0_energy">   -226.42434206 </i>
   </energy>
  </scstep>
  <scstep>
   <time name="diag">    0.24    0.31</time>
   <time name="diis">    0.85    1.21</time>
   <time name="orth">    0.06    0.09</time>
   <time name="total">    1.29    1.79</time>
   <energy>
    <i name="e_fr_energy">   -224.32506147 </i>
    <i name="e_wo_entrp">   -224.37400929 </i>
    <i name="e_0_energy">   -224.34137741 </i>
   </energy>
  </scstep>
  <scstep>
   <time name="diag">    0.12    0.18</time>
   <time name="diis">    0.69    0.96</time>
   <time name="orth">    0.06    0.06</time>
   <time name="total">    1.22    1.70</time>
   <energy>
    <i name="e_fr_energy">   -199.80872893 </i>
    <i name="e_wo_entrp">   -199.84491279 </i>
    <i name="e_0_energy">   -199.82079021 </i>
   </energy>
  </scstep>
  <scstep>
   <time name="diag">    0.29    0.34</time>
   <time name="diis">    0.94    1.24</time>
   <time name="orth">    0.10    0.19</time>
   <time name="total">    1.61    2.09</time>
   <energy>
    <i name="e_fr_energy">   -210.29465757 </i>
    <i name="e_wo_entrp">   -210.21823658 </i>
    <i name="e_0_energy">   -210.26918391 </i>
   </energy>
  </scstep>
  <scstep>
   <time name="diag">    0.22    0.22</time>
   <time name="diis">    1.08    1.08</time>
   <time name="orth">    0.18    0.18</time>
   <time name="total">    1.72    1.72</time>
   <energy>
    <i name="e_fr_energy">   -196.77666742 </i>
    <i name="e_wo_entrp">   -196.81347172 </i>
    <i name="e_0_energy">   -196.78893552 </i>
   </energy>
  </scstep>
  <scstep>
   <time name="diag">    0.28    0.28</time>
   <time name="diis">    1.01    1.01</time>
   <time name="orth">    0.10    0.10</time>
   <time name="total">    1.56    1.56</time>
   <energy>
    <i name="e_fr_energy">   -194.73709158 </i>
    <i name="e_wo_entrp">   -194.67598985 </i>
    <i name="e_0_energy">   -194.71672434 </i>
   </energy>
  </scstep>
  <scstep>
   <time name="diag">    0.28    0.28</time>
   <time name="diis">    1.11    1.11</time>
   <time name="orth">    0.05    0.05</time>
   <time name="total">    1.68    1.68</time>
   <energy>
    <i name="e_fr_energy">   -192.95477127 </i>
    <i name="e_wo_entrp">   -193.10197730 </i>
    <i name="e_0_energy">   -193.00383995 </i>
   </energy>
  </scstep>
  <scstep>
   <time name="diag">    0.34    0.34</time>
   <time name="diis">    1.02    1.02</time>
   <time name="orth">    0.06    0.06</time>
   <time name="total">    1.62    1.62</time>
   <energy>
    <i name="e_fr_energy">   -190.45671949 </i>
    <i name="e_wo_entrp">   -190.46867209 </i>
    <i name="e_0_energy">   -190.46070369 </i>
   </energy>
  </scstep>
  <scstep>
   <time name="diag">    0.19    0.19</time>
   <time name="diis">    1.14    1.14</time>
   <time name="orth">    0.16    0.30</time>
   <time name="total">    1.67    1.86</time>
   <energy>
    <i name="e_fr_energy">   -190.51982691 </i>
    <i name="e_wo_entrp">   -190.60857108 </i>
    <i name="e_0_energy">   -190.54940830 </i>
   </energy>
  </scstep>
  <scstep>
   <time name="diag">    0.17    0.21</time>
   <time name="diis">    0.84    0.95</time>
   <time name="orth">    0.04    0.06</time>
   <time name="total">    1.25    1.58</time>
   <energy>
    <i name="e_fr_energy">   -189.74428229 </i>
    <i name="e_wo_entrp">   -189.77904424 </i>
    <i name="e_0_energy">   -189.75586960 </i>
   </energy>
  </scstep>
  <scstep>
   <time name="diag">    0.16    0.20</time>
   <time name="diis">    1.10    1.15</time>
   <time name="orth">    0.15    0.21</time>
   <time name="total">    1.71    1.98</time>
   <energy>
    <i name="e_fr_energy">   -189.45361646 </i>
    <i name="e_wo_entrp">   -189.48844384 </i>
    <i name="e_0_energy">   -189.46522559 </i>
   </energy>
  </scstep>
  <scstep>
   <time name="diag">    0.19    0.19</time>
   <time name="diis">    1.26    1.27</time>
   <time name="orth">    0.06    0.06</time>
   <time name="total">    1.76    1.76</time>
   <energy>
    <i name="e_fr_energy">   -189.28290464 </i>
    <i name="e_wo_entrp">   -189.30920862 </i>
    <i name="e_0_energy">   -189.29167263 </i>
   </energy>
  </scstep>
  <scstep>
   <time name="diag">    0.20    0.20</time>
   <time name="diis">    1.10    1.11</time>
   <time name="orth">    0.05    0.05</time>
   <time name="total">    1.78    1.78</time>
   <energy>
    <i name="e_fr_energy">   -189.07457609 </i>
    <i name="e_wo_entrp">   -189.07437360 </i>
    <i name="e_0_energy">   -189.07450859 </i>
   </energy>
  </scstep>
  <scstep>
   <time name="diag">    0.31    0.31</time>
   <time name="diis">    1.33    1.33</time>
   <time name="orth">    0.11    0.11</time>
   <time name="total">    1.98    1.98</time>
   <energy>
    <i name="e_fr_energy">   -189.15903850 </i>
    <i name="e_wo_entrp">   -189.19759638 </i>
    <i name="e_0_energy">   -189.17189112 </i>
   </energy>
  </scstep>
  <scstep>
   <time name="diag">    0.22    0.23</time>
   <time name="diis">    1.17    1.17</time>
   <time name="orth">    0.06    0.06</time>
   <time name="total">    1.82    1.83</time>
   <energy>
    <i name="e_fr_energy">   -189.11758291 </i>
    <i name="e_wo_entrp">   -189.10901694 </i>
    <i name="e_0_energy">   -189.11472759 </i>
   </energy>
  </scstep>
  <scstep>
   <time name="diag">    0.22    0.22</time>
   <time name="diis">    1.10    1.23</time>
   <time name="orth">    0.05    0.05</time>
   <time name="total">    1.68    1.84</time>
   <energy>
    <i name="e_fr_energy">   -189.09002257 </i>
    <i name="e_wo_entrp">   -189.08544986 </i>
    <i name="e_0_energy">   -189.08849833 </i>
   </energy>
  </scstep>
  <scstep>
   <time name="diag">    0.18    0.27</time>
   <time name="diis">    0.99    1.21</time>
   <time name="orth">    0.26    0.33</time>
   <time name="total">    1.95    2.51</time>
   <energy>
    <i name="e_fr_energy">   -189.09129976 </i>
    <i name="e_wo_entrp">   -189.07370555 </i>
    <i name="e_0_energy">   -189.08543502 </i>
   </energy>
  </scstep>
  <scstep>
   <time name="diag">    0.22    0.30</time>
   <time name="diis">    0.82    1.12</time>
   <time name="orth">    0.09    0.13</time>
   <time name="total">    1.32    1.83</time>
   <energy>
    <i name="e_fr_energy">   -189.07393711 </i>
    <i name="e_wo_entrp">   -189.06299691 </i>
    <i name="e_0_energy">   -189.07029038 </i>
   </energy>
  </scstep>
  <scstep>
   <time name="diag">    0.32    0.38</time>
   <time name="diis">    0.90    1.05</time>
   <time name="orth">    0.08    0.08</time>
   <time name="total">    1.49    1.76</time>
   <energy>
    <i name="e_fr_energy">   -189.07627346 </i>
    <i name="e_wo_entrp">   -189.06851542 </i>
    <i name="e_0_energy">   -189.07368744 </i>
   </energy>
  </scstep>
  <scstep>
   <time name="diag">    0.34    0.35</time>
   <time name="diis">    1.05    1.05</time>
   <time name="orth">    0.15    0.15</time>
   <time name="total">    1.89    2.02</time>
   <energy>
    <i name="e_fr_energy">   -189.06612265 </i>
    <i name="e_wo_entrp">   -189.05519529 </i>
    <i name="e_0_energy">   -189.06248020 </i>
   </energy>
  </scstep>
  <scstep>
   <time name="diag">    0.33    0.39</time>
   <time name="diis">    0.78    1.00</time>
   <time name="orth">    0.03    0.07</time>
   <time name="total">    1.36    1.70</time>
   <energy>
    <i name="e_fr_energy">   -189.05803927 </i>
    <i name="e_wo_entrp">   -189.05251613 </i>
    <i name="e_0_energy">   -189.05619822 </i>
   </energy>
  </scstep>
  <scstep>
   <time name="diag">    0.29    0.41</time>
   <time name="diis">    0.56    0.75</time>
   <time name="orth">    0.07    0.09</time>
   <time name="total">    1.19    1.61</time>
   <energy>
    <i name="e_fr_energy">   -189.05680638 </i>
    <i name="e_wo_entrp">   -189.05061157 </i>
    <i name="e_0_energy">   -189.05474144 </i>
   </energy>
  </scstep>
  <scstep>
   <time name="diag">    0.20    0.25</time>
   <time name="diis">    0.82    1.03</time>
   <time name="orth">    0.30    0.54</time>
   <time name="total">    1.58    2.15</time>
   <energy>
    <i name="e_fr_energy">   -189.04956170 </i>
    <i name="e_wo_entrp">   -189.04328012 </i>
    <i name="e_0_energy">   -189.04746784 </i>
   </energy>
  </scstep>
  <scstep>
   <time name="diag">    0.24    0.29</time>
   <time name="diis">    0.62    0.82</time>
   <time name="orth">    0.04    0.07</time>
   <time name="total">    1.17    1.57</time>
   <energy>
    <i name="e_fr_energy">   -189.04635412 </i>
    <i name="e_wo_entrp">   -189.04225646 </i>
    <i name="e_0_energy">   -189.04498823 </i>
   </energy>
  </scstep>
  <scstep>
   <time name="diag">    0.15    0.18</time>
   <time name="diis">    0.47    0.66</time>
   <time name="orth">    0.05    0.05</time>
   <time name="total">    1.05    1.38</time>
   <energy>
    <i name="e_fr_energy">   -189.04467732 </i>
    <i name="e_wo_entrp">   -189.04031492 </i>
    <i name="e_0_energy">   -189.04322318 </i>
   </energy>
  </scstep>
  <scstep>
   <time name="diag">    0.28    0.34</time>
   <time name="diis">    0.67    0.92</time>
   <time name="orth">    0.07    0.09</time>
   <time name="total">    1.21    1.58</time>
   <energy>
    <i name="e_fr_energy">   -189.04118480 </i>
    <i name="e_wo_entrp">   -189.03846386 </i>
    <i name="e_0_energy">   -189.04027782 </i>
   </energy>
  </scstep>
  <scstep>
   <time name="diag">    0.25    0.33</time>
   <time name="diis">    0.54    0.62</time>
   <time name="orth">    0.05    0.07</time>
   <time name="total">    1.02    1.23</time>
   <energy>
    <i name="e_fr_energy">   -189.04069318 </i>
    <i name="e_wo_entrp">   -189.03770545 </i>
    <i name="e_0_energy">   -189.03969727 </i>
   </energy>
  </scstep>
  <scstep>
   <time name="diag">    0.23    0.34</time>
   <time name="diis">    0.48    0.65</time>
   <time name="orth">    0.08    0.12</time>
   <time name="total">    1.14    1.51</time>
   <energy>
    <i name="e_fr_energy">   -189.04011959 </i>
    <i name="e_wo_entrp">   -189.03842262 </i>
    <i name="e_0_energy">   -189.03955393 </i>
   </energy>
  </scstep>
  <scstep>
   <time name="diag">    0.63    0.74</time>
   <time name="diis">    0.68    0.78</time>
   <time name="orth">    0.07    0.09</time>
   <time name="total">    1.64    1.92</time>
   <energy>
    <i name="e_fr_energy">   -189.03957763 </i>
    <i name="e_wo_entrp">   -189.03745312 </i>
    <i name="e_0_energy">   -189.03886946 </i>
   </energy>
  </scstep>
  <scstep>
   <time name="diag">    0.19    0.26</time>
   <time name="diis">    0.45    0.61</time>
   <time name="orth">    0.05    0.05</time>
   <time name="total">    0.88    1.13</time>
   <energy>
    <i name="alphaZ">    941.83403358 </i>
    <i name="ewald"> -15966.80696484 </i>
    <i name="hartreedc">  -6872.14865724 </i>
    <i name="XCdc">    918.52536497 </i>
    <i name="pawpsdc">  22423.83300289 </i>
    <i name="pawaedc"> -22634.21234543 </i>
    <i name="eentropy">     -0.00115437 </i>
    <i name="bandstr">  -1504.16117856 </i>
    <i name="atom">  22504.09828397 </i>
    <i name="e_fr_energy">   -189.03961503 </i>
    <i name="e_wo_entrp">   -189.03846065 </i>
    <i name="e_0_energy">   -189.03923024 </i>
   </energy>
  </scstep>
  <structure>
   <crystal>
    <varray name="basis" >
     <v>       3.25262800       0.02834900       0.00000000 </v>
     <v>       0.07126300      20.54938400       0.00000000 </v>
     <v>       0.05050500       0.00000000       6.80498300 </v>
    </varray>
    <i name="volume">    454.82792569 </i>
    <varray name="rec_basis" >
     <v>       0.30745300      -0.00106621      -0.00228184 </v>
     <v>      -0.00042415       0.04866473       0.00000315 </v>
     <v>       0.00000000       0.00000000       0.14695114 </v>
    </varray>
   </crystal>
   <varray name="positions" >
    <v>       0.00000000       0.16671900       0.50139100 </v>
    <v>       0.00000000       0.83328100       0.50139100 </v>
    <v>       0.00000000       0.66671900       0.00139100 </v>
    <v>       0.00000000       0.33328100       0.00139100 </v>
    <v>       0.50000000       0.16602100       0.00000400 </v>
    <v>       0.50000000       0.83827700       0.00000400 </v>
    <v>       0.50840000       0.66602100       0.50000400 </v>
    <v>       0.50000000       0.33397900       0.50001300 </v>
    <v>       0.00000000       0.00000000       0.01216200 </v>
    <v>       0.00000000       0.50000000       0.51216200 </v>
    <v>       0.50000000       0.00000000       0.47240000 </v>
    <v>       0.50000000       0.50000000       0.97811500 </v>
    <v>       0.00000000       0.00000000       0.31436200 </v>
    <v>       0.00000000       0.50000000       0.81436200 </v>
    <v>       0.00000000       0.16816900       0.20329900 </v>
    <v>       0.00242300       0.83183100       0.20329900 </v>
    <v>       0.00000000       0.66816900       0.70329900 </v>
    <v>       0.00983100       0.33183100       0.70329900 </v>
    <v>       0.00000000       0.17342800       0.79934600 </v>
    <v>       0.00000000       0.82971500       0.79934600 </v>
    <v>       0.00000000       0.66553700       0.29934600 </v>
    <v>       0.00000000       0.33161800       0.29934600 </v>
    <v>       0.50000000       0.06837200       0.99633700 </v>
    <v>       0.50000000       0.93162800       0.99633700 </v>
    <v>       0.50000000       0.56837200       0.49633700 </v>
    <v>       0.50000000       0.43162800       0.49633700 </v>
    <v>       0.50000000       0.09818400       0.50567900 </v>
    <v>       0.50000000       0.90181600       0.50567900 </v>
    <v>       0.50471100       0.59818400       0.00013100 </v>
    <v>       0.50000000       0.40181600       0.00567900 </v>
    <v>       0.50000000       0.22477700       0.50152500 </v>
    <v>       0.50000000       0.76594000       0.50152500 </v>
    <v>       0.50000000       0.73406000       0.00152500 </v>
    <v>       0.50000000       0.26278000       0.00152500 </v>
    <v>       0.00000000       0.00000000       0.69474100 </v>
    <v>       0.00000000       0.50000000       0.19474100 </v>
   </varray>
  </structure>
  <varray name="forces" >
   <v>       0.05756299      -0.84194421       0.08056872 </v>
   <v>       0.00780720      -0.08717781       0.07671368 </v>
   <v>      -0.03366574      -0.13354332      -0.03925586 </v>
   <v>       0.13740963      -0.12241340       0.04639522 </v>
   <v>       0.00282781       0.49747410       0.07968345 </v>
   <v>       0.02162835      -1.37250601       0.06749475 </v>
   <v>      -0.23032901       0.10813162       0.10404634 </v>
   <v>       0.10876556      -0.12261340       0.07674323 </v>
   <v>       0.03038522       0.05608521       1.02795819 </v>
   <v>       0.00405669      -0.01282324       1.11492091 </v>
   <v>      -0.01666028       0.00546856       0.06937879 </v>
   <v>       0.02821933      -0.00920631      -0.55782812 </v>
   <v>      -0.03145685      -0.03085063      -1.09370395 </v>
   <v>      -0.03260659      -0.02574231      -0.73866313 </v>
   <v>       0.02518579      -0.37666879      -0.25644853 </v>
   <v>      -0.02213639       0.51841335      -0.17432728 </v>
   <v>       0.12872372      -0.08063243      -0.24692117 </v>
   <v>      -0.16046216       0.14560974      -0.27344328 </v>
   <v>      -0.02368109      -0.60972645       0.18365385 </v>
   <v>      -0.03930234       0.60020813       0.11205638 </v>
   <v>       0.08540771       0.02804826       0.14624986 </v>
   <v>      -0.10012428       0.14362795       0.20454521 </v>
   <v>       0.03093871      -0.48215609       0.18157622 </v>
   <v>      -0.02631646       0.83139039       0.18178695 </v>
   <v>       0.10204209      -0.51140627       0.18851229 </v>
   <v>      -0.01316853       0.49642921       0.18567106 </v>
   <v>      -0.03482091       0.85468060      -0.14721394 </v>
   <v>       0.03705478      -0.80020802      -0.17843969 </v>
   <v>      -0.11630356       0.87493598      -0.02099170 </v>
   <v>       0.03002652      -0.79489741      -0.13043646 </v>
   <v>      -0.02572903       0.54369473      -0.07896772 </v>
   <v>       0.04178643       0.37965889      -0.05469625 </v>
   <v>       0.01631666      -0.43432119       0.01973093 </v>
   <v>      -0.04152813       0.76837672       0.01095730 </v>
   <v>       0.02376211      -0.00620075      -0.11217847 </v>
   <v>       0.02838405       0.00280459      -0.05512779 </v>
  </varray>
  <varray name="stress" >
   <v>    -244.93960010      -1.91889262      -0.67538701 </v>
   <v>      -1.91889316    -250.43050916      -0.64547543 </v>
   <v>      -0.67538614      -0.64547620    -284.80605603 </v>
  </varray>
  <energy>
   <i name="e_fr_energy">   -189.03961503 </i>
   <i name="e_wo_entrp">   -189.03923024 </i>
   <i name="e_0_energy">     -0.00115437 </i>
  </energy>
  <time name="totalsc">   73.21   89.86</time>
  <eigenvalues>
   <array>
    <dimension dim="1">band</dimension>
    <dimension dim="2">kpoint</dimension>
    <dimension dim="3">spin</dimension>
    <field>eigene</field>
    <field>occ</field>
    <set>
     <set comment="spin 1">
      <set comment="kpoint 1">
       <r>  -22.8462    1.0000 </r>
       <r>  -22.7282    1.0000 </r>
       <r>  -22.6315    1.0000 </r>
       <r>  -22.6105    1.0000 </r>
       <r>  -22.5088    1.0000 </r>
       <r>  -22.4904    1.0000 </r>
       <r>  -22.3265    1.0000 </r>
       <r>  -22.3084    1.0000 </r>
       <r>  -22.2970    1.0000 </r>
       <r>  -22.2562    1.0000 </r>
       <r>  -22.2462    1.0000 </r>
       <r>  -22.2414    1.0000 </r>
       <r>  -22.2282    1.0000 </r>
       <r>  -22.2244    1.0000 </r>
       <r>  -22.1961    1.0000 </r>
       <r>  -22.1697    1.0000 </r>
       <r>  -22.1568    1.0000 </r>
       <r>  -22.1388    1.0000 </r>
       <r>  -22.0865    1.0000 </r>
       <r>  -21.9956    1.0000 </r>
       <r>  -21.1048    1.0000 </r>
       <r>  -20.9632    1.0000 </r>
       <r>  -16.5512    1.0000 </r>
       <r>  -16.3765    1.0000 </r>
       <r>   -6.1849    1.0000 </r>
       <r>   -6.0633    1.0000 </r>
       <r>   -5.9212    1.0000 </r>
       <r>   -5.8194    1.0000 </r>
       <r>   -5.7410    1.0000 </r>
       <r>   -5.5437    1.0000 </r>
       <r>   -5.4714    1.0000 </r>
       <r>   -5.3573    1.0000 </r>
       <r>   -5.2706    1.0000 </r>
       <r>   -5.0715    1.0000 </r>
       <r>   -4.7853    1.0000 </r>
       <r>   -4.6549    1.0000 </r>
       <r>   -4.5735    1.0000 </r>
       <r>   -4.5524    1.0000 </r>
       <r>   -4.4771    1.0000 </r>
       <r>   -4.4646    1.0000 </r>
       <r>   -4.3831    1.0000 </r>
       <r>   -4.3476    1.0000 </r>
       <r>   -4.3316    1.0000 </r>
       <r>   -4.3219    1.0000 </r>
       <r>   -4.3138    1.0000 </r>
       <r>   -4.2890    1.0000 </r>
       <r>   -4.2838    1.0000 </r>
       <r>   -4.2574    1.0000 </r>
       <r>   -4.2419    1.0000 </r>
       <r>   -4.2182    1.0000 </r>
       <r>   -4.2132    1.0000 </r>
       <r>   -4.1789    1.0000 </r>
       <r>   -4.1480    1.0000 </r>
       <r>   -4.1242    1.0000 </r>
       <r>   -4.1089    1.0000 </r>
       <r>   -4.0867    1.0000 </r>
       <r>   -4.0665    1.0000 </r>
       <r>   -4.0588    1.0000 </r>
       <r>   -4.0396    1.0000 </r>
       <r>   -4.0084    1.0000 </r>
       <r>   -3.9589    1.0000 </r>
       <r>   -3.8861    1.0000 </r>
       <r>   -3.8703    1.0000 </r>
       <r>   -3.7026    1.0000 </r>
       <r>   -3.6569    1.0000 </r>
       <r>   -3.6373    1.0000 </r>
       <r>   -3.6033    1.0000 </r>
       <r>   -3.5302    1.0000 </r>
       <r>   -3.5015    1.0000 </r>
       <r>   -3.4963    1.0000 </r>
       <r>   -3.4695    1.0000 </r>
       <r>   -3.3798    1.0000 </r>
       <r>   -3.2926    1.0000 </r>
       <r>   -3.2656    1.0000 </r>
       <r>   -3.2179    1.0000 </r>
       <r>   -3.2046    1.0000 </r>
       <r>   -3.1810    1.0000 </r>
       <r>   -3.1699    1.0000 </r>
       <r>   -3.1325    1.0000 </r>
       <r>   -3.1163    1.0000 </r>
       <r>   -3.0880    1.0000 </r>
       <r>   -3.0610    1.0000 </r>
       <r>   -3.0225    1.0000 </r>
       <r>   -2.9603    1.0000 </r>
       <r>   -2.8926    1.0000 </r>
       <r>   -2.8026    1.0000 </r>
       <r>   -2.6537    1.0000 </r>
       <r>   -2.5536    1.0000 </r>
       <r>   -2.1034    1.0000 </r>
       <r>   -2.0466    1.0000 </r>
       <r>   -2.0420    1.0000 </r>
       <r>   -1.9949    1.0000 </r>
       <r>   -1.8491    1.0000 </r>
       <r>   -1.7744    1.0000 </r>
       <r>   -1.2937    1.0000 </r>
       <r>   -1.1577    1.0000 </r>
       <r>    0.8233    1.0000 </r>
       <r>    0.8782    1.0000 </r>
       <r>    0.9114    1.0000 </r>
       <r>    0.9268    1.0000 </r>
       <r>    0.9479    1.0000 </r>
       <r>    0.9687    1.0000 </r>
       <r>    1.0047    1.0000 </r>
       <r>    1.0149    1.0000 </r>
       <r>    1.0244    1.0000 </r>
       <r>    1.0684    1.0000 </r>
       <r>    1.0891    1.0000 </r>
       <r>    1.1023    1.0000 </r>
       <r>    1.1193    1.0000 </r>
       <r>    1.1681    1.0000 </r>
       <r>    1.1722    1.0000 </r>
       <r>    1.2067    1.0000 </r>
       <r>    1.2152    1.0000 </r>
       <r>    1.2347    1.0001 </r>
       <r>    1.2454    1.0001 </r>
       <r>    1.2530    1.0001 </r>
       <r>    1.2759    1.0002 </r>
       <r>    1.2924    1.0004 </r>
       <r>    1.3217    1.0008 </r>
       <r>    1.3546    1.0016 </r>
       <r>    1.3862    1.0031 </r>
       <r>    1.3927    1.0035 </r>
       <r>    1.4074    1.0046 </r>
       <r>    1.4990    1.0184 </r>
       <r>    1.5348    1.0265 </r>
       <r>    1.6029    1.0352 </r>
       <r>    1.6765    0.9941 </r>
       <r>    1.6951    0.9679 </r>
       <r>    1.7532    0.8312 </r>
       <r>    1.7746    0.7603 </r>
       <r>    1.8141    0.6078 </r>
       <r>    1.8396    0.5009 </r>
       <r>    1.8878    0.3035 </r>
       <r>    1.9634    0.0721 </r>
       <r>    1.9644    0.0700 </r>
       <r>    2.0424   -0.0264 </r>
       <r>    2.0885   -0.0354 </r>
       <r>    2.1109   -0.0333 </r>
       <r>    2.1410   -0.0274 </r>
       <r>    2.1454   -0.0264 </r>
       <r>    2.1581   -0.0235 </r>
       <r>    2.2123   -0.0121 </r>
       <r>    2.2331   -0.0089 </r>
       <r>    2.2577   -0.0059 </r>
       <r>    2.3218   -0.0017 </r>
       <r>    2.3606   -0.0007 </r>
       <r>    2.3915   -0.0003 </r>
       <r>    2.4126   -0.0002 </r>
       <r>    2.4182   -0.0002 </r>
       <r>    2.4376   -0.0001 </r>
       <r>    2.5666   -0.0000 </r>
       <r>    2.9026   -0.0000 </r>
       <r>    3.0882   -0.0000 </r>
       <r>    3.2057   -0.0000 </r>
       <r>    3.2836   -0.0000 </r>
       <r>    3.2911   -0.0000 </r>
       <r>    4.0832   -0.0000 </r>
       <r>    4.5640   -0.0000 </r>
       <r>    4.9167   -0.0000 </r>
       <r>    6.3494   -0.0000 </r>
      </set>
     </set>
    </set>
   </array>
  </eigenvalues>
  <separator name="orbital magnetization" >
   <v name="MAGDIPOLOUT">      0.00000000      0.00000000      0.00000000</v>
  </separator>
  <dos>
   <i name="efermi">      1.83982767 </i>
   <total>
    <array>
     <dimension dim="1">gridpoints</dimension>
     <dimension dim="2">spin</dimension>
     <field>energy</field>
     <field>total</field>
     <field>integrated</field>
     <set>
      <set comment="spin 1">
       <r>   -24.8462     0.0000     0.0000 </r>
       <r>   -24.7356     0.0000     0.0000 </r>
       <r>   -24.6249     0.0000     0.0000 </r>
       <r>   -24.5143    -0.0000    -0.0000 </r>
       <r>   -24.4036    -0.0000    -0.0000 </r>
       <r>   -24.2930    -0.0000    -0.0000 </r>
       <r>   -24.1823    -0.0000    -0.0000 </r>
       <r>   -24.0717    -0.0000    -0.0000 </r>
       <r>   -23.9610    -0.0000    -0.0000 </r>
       <r>   -23.8504    -0.0000    -0.0000 </r>
       <r>   -23.7397    -0.0000    -0.0000 </r>
       <r>   -23.6290    -0.0000    -0.0000 </r>
       <r>   -23.5184    -0.0002    -0.0000 </r>
       <r>   -23.4077    -0.0047    -0.0005 </r>
       <r>   -23.2971    -0.0578    -0.0069 </r>
       <r>   -23.1864    -0.3314    -0.0436 </r>
       <r>   -23.0758    -0.6513    -0.1157 </r>
       <r>   -22.9651     1.1688     0.0137 </r>
       <r>   -22.8545     7.6497     0.8601 </r>
       <r>   -22.7438    17.0009     2.7413 </r>
       <r>   -22.6332    25.2505     5.5353 </r>
       <r>   -22.5225    27.3082     8.5570 </r>
       <r>   -22.4119    30.3762    11.9182 </r>
       <r>   -22.3012    57.3885    18.2684 </r>
       <r>   -22.1906    87.7373    27.9767 </r>
       <r>   -22.0799    73.3437    36.0923 </r>
       <r>   -21.9693    32.1340    39.6480 </r>
       <r>   -21.8586     6.0180    40.3139 </r>
       <r>   -21.7480    -1.2574    40.1748 </r>
       <r>   -21.6373    -1.2048    40.0415 </r>
       <r>   -21.5267    -0.4307    39.9938 </r>
       <r>   -21.4160    -0.4509    39.9439 </r>
       <r>   -21.3054    -0.2788    39.9131 </r>
       <r>   -21.1947     3.0320    40.2486 </r>
       <r>   -21.0840     9.7819    41.3310 </r>
       <r>   -20.9734    13.2921    42.8018 </r>
       <r>   -20.8627     9.1431    43.8135 </r>
       <r>   -20.7521     2.5142    44.0917 </r>
       <r>   -20.6414    -0.3732    44.0504 </r>
       <r>   -20.5308    -0.3691    44.0095 </r>
       <r>   -20.4201    -0.0784    44.0009 </r>
       <r>   -20.3095    -0.0074    44.0000 </r>
       <r>   -20.1988    -0.0003    44.0000 </r>
       <r>   -20.0882    -0.0000    44.0000 </r>
       <r>   -19.9775    -0.0000    44.0000 </r>
       <r>   -19.8669    -0.0000    44.0000 </r>
       <r>   -19.7562    -0.0000    44.0000 </r>
       <r>   -19.6456    -0.0000    44.0000 </r>
       <r>   -19.5349     0.0000    44.0000 </r>
       <r>   -19.4243     0.0000    44.0000 </r>
       <r>   -19.3136     0.0000    44.0000 </r>
       <r>   -19.2030     0.0000    44.0000 </r>
       <r>   -19.0923     0.0000    44.0000 </r>
       <r>   -18.9817     0.0000    44.0000 </r>
       <r>   -18.8710     0.0000    44.0000 </r>
       <r>   -18.7604     0.0000    44.0000 </r>
       <r>   -18.6497     0.0000    44.0000 </r>
       <r>   -18.5391     0.0000    44.0000 </r>
       <r>   -18.4284     0.0000    44.0000 </r>
       <r>   -18.3177     0.0000    44.0000 </r>
       <r>   -18.2071    -0.0000    44.0000 </r>
       <r>   -18.0964    -0.0000    44.0000 </r>
       <r>   -17.9858    -0.0000    44.0000 </r>
       <r>   -17.8751    -0.0000    44.0000 </r>
       <r>   -17.7645    -0.0000    44.0000 </r>
       <r>   -17.6538    -0.0000    44.0000 </r>
       <r>   -17.5432    -0.0000    44.0000 </r>
       <r>   -17.4325    -0.0000    44.0000 </r>
       <r>   -17.3219    -0.0000    44.0000 </r>
       <r>   -17.2112    -0.0003    44.0000 </r>
       <r>   -17.1006    -0.0062    43.9993 </r>
       <r>   -16.9899    -0.0682    43.9917 </r>
       <r>   -16.8793    -0.3282    43.9554 </r>
       <r>   -16.7686    -0.3388    43.9179 </r>
       <r>   -16.6580     2.1930    44.1606 </r>
       <r>   -16.5473     7.8337    45.0274 </r>
       <r>   -16.4367    11.7747    46.3303 </r>
       <r>   -16.3260    10.3924    47.4802 </r>
       <r>   -16.2154     4.8961    48.0220 </r>
       <r>   -16.1047     0.4641    48.0733 </r>
       <r>   -15.9941    -0.4678    48.0216 </r>
       <r>   -15.8834    -0.1705    48.0027 </r>
       <r>   -15.7727    -0.0231    48.0002 </r>
       <r>   -15.6621    -0.0015    48.0000 </r>
       <r>   -15.5514    -0.0000    48.0000 </r>
       <r>   -15.4408    -0.0000    48.0000 </r>
       <r>   -15.3301    -0.0000    48.0000 </r>
       <r>   -15.2195    -0.0000    48.0000 </r>
       <r>   -15.1088    -0.0000    48.0000 </r>
       <r>   -14.9982     0.0000    48.0000 </r>
       <r>   -14.8875     0.0000    48.0000 </r>
       <r>   -14.7769     0.0000    48.0000 </r>
       <r>   -14.6662     0.0000    48.0000 </r>
       <r>   -14.5556     0.0000    48.0000 </r>
       <r>   -14.4449     0.0000    48.0000 </r>
       <r>   -14.3343     0.0000    48.0000 </r>
       <r>   -14.2236     0.0000    48.0000 </r>
       <r>   -14.1130     0.0000    48.0000 </r>
       <r>   -14.0023     0.0000    48.0000 </r>
       <r>   -13.8917     0.0000    48.0000 </r>
       <r>   -13.7810     0.0000    48.0000 </r>
       <r>   -13.6704     0.0000    48.0000 </r>
       <r>   -13.5597     0.0000    48.0000 </r>
       <r>   -13.4491     0.0000    48.0000 </r>
       <r>   -13.3384     0.0000    48.0000 </r>
       <r>   -13.2278     0.0000    48.0000 </r>
       <r>   -13.1171     0.0000    48.0000 </r>
       <r>   -13.0064     0.0000    48.0000 </r>
       <r>   -12.8958     0.0000    48.0000 </r>
       <r>   -12.7851     0.0000    48.0000 </r>
       <r>   -12.6745     0.0000    48.0000 </r>
       <r>   -12.5638     0.0000    48.0000 </r>
       <r>   -12.4532     0.0000    48.0000 </r>
       <r>   -12.3425     0.0000    48.0000 </r>
       <r>   -12.2319     0.0000    48.0000 </r>
       <r>   -12.1212     0.0000    48.0000 </r>
       <r>   -12.0106     0.0000    48.0000 </r>
       <r>   -11.8999     0.0000    48.0000 </r>
       <r>   -11.7893     0.0000    48.0000 </r>
       <r>   -11.6786     0.0000    48.0000 </r>
       <r>   -11.5680     0.0000    48.0000 </r>
       <r>   -11.4573     0.0000    48.0000 </r>
       <r>   -11.3467     0.0000    48.0000 </r>
       <r>   -11.2360     0.0000    48.0000 </r>
       <r>   -11.1254     0.0000    48.0000 </r>
       <r>   -11.0147     0.0000    48.0000 </r>
       <r>   -10.9041     0.0000    48.0000 </r>
       <r>   -10.7934     0.0000    48.0000 </r>
       <r>   -10.6828     0.0000    48.0000 </r>
       <r>   -10.5721     0.0000    48.0000 </r>
       <r>   -10.4614     0.0000    48.0000 </r>
       <r>   -10.3508     0.0000    48.0000 </r>
       <r>   -10.2401     0.0000    48.0000 </r>
       <r>   -10.1295     0.0000    48.0000 </r>
       <r>   -10.0188     0.0000    48.0000 </r>
       <r>    -9.9082     0.0000    48.0000 </r>
       <r>    -9.7975     0.0000    48.0000 </r>
       <r>    -9.6869     0.0000    48.0000 </r>
       <r>    -9.5762     0.0000    48.0000 </r>
       <r>    -9.4656     0.0000    48.0000 </r>
       <r>    -9.3549     0.0000    48.0000 </r>
       <r>    -9.2443     0.0000    48.0000 </r>
       <r>    -9.1336     0.0000    48.0000 </r>
       <r>    -9.0230     0.0000    48.0000 </r>
       <r>    -8.9123     0.0000    48.0000 </r>
       <r>    -8.8017     0.0000    48.0000 </r>
       <r>    -8.6910     0.0000    48.0000 </r>
       <r>    -8.5804     0.0000    48.0000 </r>
       <r>    -8.4697     0.0000    48.0000 </r>
       <r>    -8.3591     0.0000    48.0000 </r>
       <r>    -8.2484     0.0000    48.0000 </r>
       <r>    -8.1378     0.0000    48.0000 </r>
       <r>    -8.0271     0.0000    48.0000 </r>
       <r>    -7.9165     0.0000    48.0000 </r>
       <r>    -7.8058    -0.0000    48.0000 </r>
       <r>    -7.6951    -0.0000    48.0000 </r>
       <r>    -7.5845    -0.0000    48.0000 </r>
       <r>    -7.4738    -0.0000    48.0000 </r>
       <r>    -7.3632    -0.0000    48.0000 </r>
       <r>    -7.2525    -0.0000    48.0000 </r>
       <r>    -7.1419    -0.0000    48.0000 </r>
       <r>    -7.0312    -0.0000    48.0000 </r>
       <r>    -6.9206    -0.0000    48.0000 </r>
       <r>    -6.8099    -0.0008    47.9999 </r>
       <r>    -6.6993    -0.0149    47.9983 </r>
       <r>    -6.5886    -0.1322    47.9836 </r>
       <r>    -6.4780    -0.4981    47.9285 </r>
       <r>    -6.3673    -0.1512    47.9118 </r>
       <r>    -6.2567     3.8898    48.3422 </r>
       <r>    -6.1460    10.9949    49.5588 </r>
       <r>    -6.0354    15.2595    51.2473 </r>
       <r>    -5.9247    17.0017    53.1286 </r>
       <r>    -5.8141    19.0370    55.2351 </r>
       <r>    -5.7034    17.1963    57.1379 </r>
       <r>    -5.5928    14.0935    58.6973 </r>
       <r>    -5.4821    17.0693    60.5861 </r>
       <r>    -5.3715    20.5604    62.8611 </r>
       <r>    -5.2608    18.3191    64.8882 </r>
       <r>    -5.1501    12.9420    66.3202 </r>
       <r>    -5.0395     8.8120    67.2953 </r>
       <r>    -4.9288     5.5707    67.9117 </r>
       <r>    -4.8182     6.0728    68.5837 </r>
       <r>    -4.7075    13.0202    70.0244 </r>
       <r>    -4.5969    23.6785    72.6445 </r>
       <r>    -4.4862    37.4664    76.7902 </r>
       <r>    -4.3756    61.2177    83.5641 </r>
       <r>    -4.2649    91.3417    93.6712 </r>
       <r>    -4.1543   103.2148   105.0921 </r>
       <r>    -4.0436    89.6812   115.0156 </r>
       <r>    -3.9330    60.3971   121.6986 </r>
       <r>    -3.8223    32.2196   125.2638 </r>
       <r>    -3.7117    25.8363   128.1226 </r>
       <r>    -3.6010    39.9563   132.5439 </r>
       <r>    -3.4904    48.6929   137.9319 </r>
       <r>    -3.3797    42.9593   142.6854 </r>
       <r>    -3.2691    46.9181   147.8770 </r>
       <r>    -3.1584    65.7284   155.1500 </r>
       <r>    -3.0478    67.5635   162.6260 </r>
       <r>    -2.9371    46.1587   167.7336 </r>
       <r>    -2.8265    25.6155   170.5680 </r>
       <r>    -2.7158    16.7747   172.4241 </r>
       <r>    -2.6052    15.4885   174.1380 </r>
       <r>    -2.4945    12.2706   175.4957 </r>
       <r>    -2.3838     3.8855   175.9257 </r>
       <r>    -2.2732    -0.5144   175.8687 </r>
       <r>    -2.1625     8.5374   176.8134 </r>
       <r>    -2.0519    26.2265   179.7154 </r>
       <r>    -1.9412    31.8824   183.2433 </r>
       <r>    -1.8306    23.8260   185.8797 </r>
       <r>    -1.7199    14.5081   187.4851 </r>
       <r>    -1.6093     5.0952   188.0488 </r>
       <r>    -1.4986    -0.3485   188.0103 </r>
       <r>    -1.3880     2.1532   188.2485 </r>
       <r>    -1.2773     9.5306   189.3031 </r>
       <r>    -1.1667    13.4830   190.7950 </r>
       <r>    -1.0560     9.2627   191.8200 </r>
       <r>    -0.9454     2.4794   192.0943 </r>
       <r>    -0.8347    -0.3984   192.0502 </r>
       <r>    -0.7241    -0.3694   192.0094 </r>
       <r>    -0.6134    -0.0772   192.0008 </r>
       <r>    -0.5028    -0.0072   192.0000 </r>
       <r>    -0.3921    -0.0003   192.0000 </r>
       <r>    -0.2815    -0.0000   192.0000 </r>
       <r>    -0.1708    -0.0000   192.0000 </r>
       <r>    -0.0602    -0.0000   192.0000 </r>
       <r>     0.0505    -0.0000   192.0000 </r>
       <r>     0.1612    -0.0003   192.0000 </r>
       <r>     0.2718    -0.0084   191.9990 </r>
       <r>     0.3825    -0.1122   191.9866 </r>
       <r>     0.4931    -0.7598   191.9025 </r>
       <r>     0.6038    -2.2222   191.6567 </r>
       <r>     0.7144     0.3924   191.7001 </r>
       <r>     0.8251    19.4821   193.8558 </r>
       <r>     0.9357    54.7581   199.9149 </r>
       <r>     1.0464    83.6189   209.1675 </r>
       <r>     1.1570    97.3487   219.9394 </r>
       <r>     1.2677   101.5020   231.1708 </r>
       <r>     1.3783    86.6610   240.7600 </r>
       <r>     1.4890    56.7107   247.0351 </r>
       <r>     1.5996    37.9192   251.2310 </r>
       <r>     1.7103    40.6110   255.7247 </r>
       <r>     1.8209    48.3491   261.0746 </r>
       <r>     1.9316    47.8300   266.3671 </r>
       <r>     2.0422    50.4693   271.9516 </r>
       <r>     2.1529    62.3051   278.8458 </r>
       <r>     2.2635    67.5559   286.3210 </r>
       <r>     2.3742    63.0788   293.3008 </r>
       <r>     2.4848    49.3804   298.7648 </r>
       <r>     2.5955    24.8150   301.5107 </r>
       <r>     2.7061     5.8040   302.1529 </r>
       <r>     2.8168     2.1621   302.3921 </r>
       <r>     2.9275     6.7643   303.1406 </r>
       <r>     3.0381    11.0075   304.3586 </r>
       <r>     3.1488    17.2616   306.2687 </r>
       <r>     3.2594    24.7359   309.0057 </r>
       <r>     3.3701    21.0406   311.3339 </r>
       <r>     3.4807     7.5412   312.1684 </r>
       <r>     3.5914    -0.3795   312.1264 </r>
       <r>     3.7020    -1.0849   312.0063 </r>
       <r>     3.8127    -0.6351   311.9360 </r>
       <r>     3.9233     0.7611   312.0203 </r>
       <r>     4.0340     5.2016   312.5958 </r>
       <r>     4.1446     8.0087   313.4820 </r>
       <r>     4.2553     4.2878   313.9565 </r>
       <r>     4.3659     0.5166   314.0136 </r>
       <r>     4.4766     2.9719   314.3425 </r>
       <r>     4.5872     7.3458   315.1553 </r>
       <r>     4.6979     6.1235   315.8329 </r>
       <r>     4.8085     4.1107   316.2877 </r>
       <r>     4.9192     6.9081   317.0521 </r>
       <r>     5.0298     6.8766   317.8130 </r>
       <r>     5.1405     2.2980   318.0673 </r>
       <r>     5.2511    -0.2510   318.0395 </r>
       <r>     5.3618    -0.2921   318.0072 </r>
       <r>     5.4725    -0.0597   318.0006 </r>
       <r>     5.5831    -0.0053   318.0000 </r>
       <r>     5.6938    -0.0005   318.0000 </r>
       <r>     5.8044    -0.0069   317.9992 </r>
       <r>     5.9151    -0.0726   317.9912 </r>
       <r>     6.0257    -0.3217   317.9556 </r>
       <r>     6.1364    -0.1523   317.9387 </r>
       <r>     6.2470     2.7844   318.2468 </r>
       <r>     6.3577     7.4381   319.0699 </r>
       <r>     6.4683     6.9160   319.8351 </r>
       <r>     6.5790     2.1126   320.0689 </r>
       <r>     6.6896    -0.2883   320.0370 </r>
       <r>     6.8003    -0.2760   320.0065 </r>
       <r>     6.9109    -0.0537   320.0005 </r>
       <r>     7.0216    -0.0046   320.0000 </r>
       <r>     7.1322    -0.0002   320.0000 </r>
       <r>     7.2429    -0.0000   320.0000 </r>
       <r>     7.3535    -0.0000   320.0000 </r>
       <r>     7.4642    -0.0000   320.0000 </r>
       <r>     7.5748    -0.0000   320.0000 </r>
       <r>     7.6855     0.0000   320.0000 </r>
       <r>     7.7961     0.0000   320.0000 </r>
       <r>     7.9068     0.0000   320.0000 </r>
       <r>     8.0174     0.0000   320.0000 </r>
       <r>     8.1281     0.0000   320.0000 </r>
       <r>     8.2388     0.0000   320.0000 </r>
       <r>     8.3494     0.0000   320.0000 </r>
      </set>
     </set>
    </array>
   </total>
  </dos>
 </calculation>
 <structure name="finalpos" >
  <crystal>
   <varray name="basis" >
    <v>       3.25262800       0.02834900       0.00000000 </v>
    <v>       0.07126300      20.54938400       0.00000000 </v>
    <v>       0.05050500       0.00000000       6.80498300 </v>
   </varray>
   <i name="volume">    454.82792569 </i>
   <varray name="rec_basis" >
    <v>       0.30745300      -0.00106621      -0.00228184 </v>
    <v>      -0.00042415       0.04866473       0.00000315 </v>
    <v>       0.00000000       0.00000000       0.14695114 </v>
   </varray>
  </crystal>
  <varray name="positions" >
   <v>       0.00000000       0.16671900       0.50139100 </v>
   <v>       0.00000000       0.83328100       0.50139100 </v>
   <v>       0.00000000       0.66671900       0.00139100 </v>
   <v>       0.00000000       0.33328100       0.00139100 </v>
   <v>       0.50000000       0.16602100       0.00000400 </v>
   <v>       0.50000000       0.83827700       0.00000400 </v>
   <v>       0.50840000       0.66602100       0.50000400 </v>
   <v>       0.50000000       0.33397900       0.50001300 </v>
   <v>       0.00000000       0.00000000       0.01216200 </v>
   <v>       0.00000000       0.50000000       0.51216200 </v>
   <v>       0.50000000       0.00000000       0.47240000 </v>
   <v>       0.50000000       0.50000000       0.97811500 </v>
   <v>       0.00000000       0.00000000       0.31436200 </v>
   <v>       0.00000000       0.50000000       0.81436200 </v>
   <v>       0.00000000       0.16816900       0.20329900 </v>
   <v>       0.00242300       0.83183100       0.20329900 </v>
   <v>       0.00000000       0.66816900       0.70329900 </v>
   <v>       0.00983100       0.33183100       0.70329900 </v>
   <v>       0.00000000       0.17342800       0.79934600 </v>
   <v>       0.00000000       0.82971500       0.79934600 </v>
   <v>       0.00000000       0.66553700       0.29934600 </v>
   <v>       0.00000000       0.33161800       0.29934600 </v>
   <v>       0.50000000       0.06837200       0.99633700 </v>
   <v>       0.50000000       0.93162800       0.99633700 </v>
   <v>       0.50000000       0.56837200       0.49633700 </v>
   <v>       0.50000000       0.43162800       0.49633700 </v>
   <v>       0.50000000       0.09818400       0.50567900 </v>
   <v>       0.50000000       0.90181600       0.50567900 </v>
   <v>       0.50471100       0.59818400       0.00013100 </v>
   <v>       0.50000000       0.40181600       0.00567900 </v>
   <v>       0.50000000       0.22477700       0.50152500 </v>
   <v>       0.50000000       0.76594000       0.50152500 </v>
   <v>       0.50000000       0.73406000       0.00152500 </v>
   <v>       0.50000000       0.26278000       0.00152500 </v>
   <v>       0.00000000       0.00000000       0.69474100 </v>
   <v>       0.00000000       0.50000000       0.19474100 </v>
  </varray>
 </structure>
</modeling>
