<?xml version="1.0" encoding="ISO-8859-1"?>
<modeling>
 <generator>
  <i name="program" type="string">vasp </i>
  <i name="version" type="string">5.3.5  </i>
  <i name="subversion" type="string">31Mar14 (build Aug 29 2014 19:41:47) complex                          parallel </i>
  <i name="platform" type="string">LinuxIFC </i>
  <i name="date" type="string">2019 04 11 </i>
  <i name="time" type="string">12:52:09 </i>
 </generator>
 <incar>
  <i type="string" name="SYSTEM"> Fe4OF7_var_9</i>
  <i type="int" name="ISTART">     0</i>
  <i type="string" name="PREC">normal</i>
  <i type="string" name="ALGO"> VeryFast</i>
  <i type="int" name="ISPIN">     1</i>
  <i type="int" name="ICHARG">     2</i>
  <i type="int" name="NELM">   300</i>
  <i type="int" name="ISYM">     0</i>
  <i type="logical" name="LWAVE"> F  </i>
  <i type="int" name="NELM">   300</i>
 </incar>
 <kpoints>
  <generation param="Gamma">
   <v type="int" name="divisions">       1        1        1 </v>
   <v name="usershift">      0.00000000       0.00000000       0.00000000 </v>
   <v name="genvec1">      1.00000000       0.00000000       0.00000000 </v>
   <v name="genvec2">      0.00000000       1.00000000       0.00000000 </v>
   <v name="genvec3">     -0.00000000       0.00000000       1.00000000 </v>
   <v name="shift">      0.00000000       0.00000000       0.00000000 </v>
  </generation>
  <varray name="kpointlist" >
   <v>       0.00000000       0.00000000       0.00000000 </v>
  </varray>
  <varray name="weights" >
   <v>       1.00000000 </v>
  </varray>
 </kpoints>
 <parameters>
  <separator name="general" >
   <i type="string" name="SYSTEM">Fe4OF7_var_9</i>
   <i type="logical" name="LCOMPAT"> F  </i>
  </separator>
  <separator name="electronic" >
   <i type="string" name="PREC">normal</i>
   <i name="ENMAX">    400.00000000</i>
   <i name="ENAUG">    613.61400000</i>
   <i name="EDIFF">      0.00010000</i>
   <i type="int" name="IALGO">    48</i>
   <i type="int" name="IWAVPR">    10</i>
   <i type="int" name="NBANDS">   104</i>
   <i name="NELECT">    174.00000000</i>
   <i type="int" name="TURBO">     0</i>
   <i type="int" name="IRESTART">     0</i>
   <i type="int" name="NREBOOT">     0</i>
   <i type="int" name="NMIN">     0</i>
   <i name="EREF">      0.00000000</i>
   <separator name="electronic smearing" >
    <i type="int" name="ISMEAR">     1</i>
    <i name="SIGMA">      0.20000000</i>
    <i name="KSPACING">      0.50000000</i>
    <i type="logical" name="KGAMMA"> T  </i>
   </separator>
   <separator name="electronic projectors" >
    <i type="logical" name="LREAL"> F  </i>
    <v name="ROPT">      0.00000000      0.00000000      0.00000000</v>
    <i type="int" name="LMAXPAW">  -100</i>
    <i type="int" name="LMAXMIX">     2</i>
    <i type="logical" name="NLSPLINE"> F  </i>
   </separator>
   <separator name="electronic startup" >
    <i type="int" name="ISTART">     0</i>
    <i type="int" name="ICHARG">     2</i>
    <i type="int" name="INIWAV">     1</i>
   </separator>
   <separator name="electronic spin" >
    <i type="int" name="ISPIN">     1</i>
    <i type="logical" name="LNONCOLLINEAR"> F  </i>
    <v name="MAGMOM">      1.00000000      1.00000000      1.00000000      1.00000000      1.00000000      1.00000000      1.00000000      1.00000000      1.00000000      1.00000000      1.00000000      1.00000000      1.00000000      1.00000000      1.00000000      1.00000000      1.00000000      1.00000000      1.00000000      1.00000000
      1.00000000      1.00000000      1.00000000      1.00000000</v>
    <i name="NUPDOWN">     -1.00000000</i>
    <i type="logical" name="LSORBIT"> F  </i>
    <v name="SAXIS">      0.00000000      0.00000000      1.00000000</v>
    <i type="logical" name="LSPIRAL"> F  </i>
    <v name="QSPIRAL">      0.00000000      0.00000000      0.00000000</v>
    <i type="logical" name="LZEROZ"> F  </i>
   </separator>
   <separator name="electronic exchange-correlation" >
    <i type="logical" name="LASPH"> F  </i>
    <i type="logical" name="LMETAGGA"> F  </i>
   </separator>
   <separator name="electronic convergence" >
    <i type="int" name="NELM">   300</i>
    <i type="int" name="NELMDL">   -12</i>
    <i type="int" name="NELMIN">     2</i>
    <i name="ENINI">    400.00000000</i>
    <separator name="electronic convergence detail" >
     <i type="logical" name="LDIAG"> T  </i>
     <i type="logical" name="LSUBROT"> F  </i>
     <i name="WEIMIN">      0.00000000</i>
     <i name="EBREAK">      0.00000024</i>
     <i name="DEPER">      0.30000000</i>
     <i type="int" name="NRMM">     4</i>
     <i name="TIME">      0.40000000</i>
    </separator>
   </separator>
   <separator name="electronic mixer" >
    <i name="AMIX">      0.40000000</i>
    <i name="BMIX">      1.00000000</i>
    <i name="AMIN">      0.10000000</i>
    <i name="AMIX_MAG">      1.60000000</i>
    <i name="BMIX_MAG">      1.00000000</i>
    <separator name="electronic mixer details" >
     <i type="int" name="IMIX">     4</i>
     <i type="int" name="MAXMIX">   -45</i>
     <i name="WC">    100.00000000</i>
     <i type="int" name="INIMIX">     1</i>
     <i type="int" name="MIXPRE">     1</i>
     <i type="int" name="MREMOVE">     5</i>
    </separator>
   </separator>
   <separator name="electronic dipolcorrection" >
    <i type="logical" name="LDIPOL"> F  </i>
    <i type="logical" name="LMONO"> F  </i>
    <i type="int" name="IDIPOL">     0</i>
    <i name="EPSILON">      1.00000000</i>
    <v name="DIPOL">   -100.00000000   -100.00000000   -100.00000000</v>
    <i name="EFIELD">      0.00000000</i>
   </separator>
  </separator>
  <separator name="grids" >
   <i type="int" name="NGX">    28</i>
   <i type="int" name="NGY">    24</i>
   <i type="int" name="NGZ">    54</i>
   <i type="int" name="NGXF">    56</i>
   <i type="int" name="NGYF">    48</i>
   <i type="int" name="NGZF">   108</i>
   <i type="logical" name="ADDGRID"> F  </i>
  </separator>
  <separator name="ionic" >
   <i type="int" name="NSW">     0</i>
   <i type="int" name="IBRION">    -1</i>
   <i type="int" name="ISIF">     2</i>
   <i name="PSTRESS">      0.00000000</i>
   <i name="EDIFFG">      0.00100000</i>
   <i type="int" name="NFREE">     0</i>
   <i name="POTIM">      0.50000000</i>
   <i name="SMASS">     -3.00000000</i>
   <i name="SCALEE">      1.00000000</i>
  </separator>
  <separator name="ionic md" >
   <i name="TEBEG">      0.00010000</i>
   <i name="TEEND">      0.00010000</i>
   <i type="int" name="NBLOCK">     1</i>
   <i type="int" name="KBLOCK">     1</i>
   <i type="int" name="NPACO">   256</i>
   <i name="APACO">     16.00000000</i>
  </separator>
  <separator name="symmetry" >
   <i type="int" name="ISYM">     0</i>
   <i name="SYMPREC">      0.00001000</i>
  </separator>
  <separator name="dos" >
   <i type="logical" name="LORBIT"> F  </i>
   <v name="RWIGS">     -1.00000000     -1.00000000     -1.00000000</v>
   <i type="int" name="NEDOS">   301</i>
   <i name="EMIN">     10.00000000</i>
   <i name="EMAX">    -10.00000000</i>
   <i name="EFERMI">      0.00000000</i>
  </separator>
  <separator name="writing" >
   <i type="int" name="NWRITE">     2</i>
   <i type="logical" name="LWAVE"> F  </i>
   <i type="logical" name="LCHARG"> T  </i>
   <i type="logical" name="LPARD"> F  </i>
   <i type="logical" name="LVTOT"> F  </i>
   <i type="logical" name="LVHAR"> F  </i>
   <i type="logical" name="LELF"> F  </i>
   <i type="logical" name="LOPTICS"> F  </i>
   <v name="STM">      0.00000000      0.00000000      0.00000000      0.00000000      0.00000000      0.00000000      0.00000000</v>
  </separator>
  <separator name="performance" >
   <i type="int" name="NPAR">     4</i>
   <i type="int" name="NSIM">     4</i>
   <i type="int" name="NBLK">    -1</i>
   <i type="logical" name="LPLANE"> T  </i>
   <i type="logical" name="LSCALAPACK"> T  </i>
   <i type="logical" name="LSCAAWARE"> F  </i>
   <i type="logical" name="LSCALU"> F  </i>
   <i type="logical" name="LASYNC"> F  </i>
   <i type="logical" name="LORBITALREAL"> F  </i>
  </separator>
  <separator name="miscellaneous" >
   <i type="int" name="IDIOT">     3</i>
   <i type="logical" name="LMUSIC"> F  </i>
   <v name="POMASS">     55.84700000     16.00000000     18.99800000</v>
   <v name="DARWINR">      0.00000000      0.00000000      0.00000000</v>
   <v name="DARWINV">      1.00000000      1.00000000      1.00000000</v>
   <i type="logical" name="LCORR"> T  </i>
  </separator>
  <i type="logical" name="GGA_COMPAT"> T  </i>
  <i type="logical" name="LBERRY"> F  </i>
  <i type="int" name="ICORELEVEL">     0</i>
  <i type="logical" name="LDAU"> F  </i>
  <i type="int" name="I_CONSTRAINED_M">     0</i>
  <separator name="electronic exchange-correlation" >
   <i type="string" name="GGA">--</i>
   <i type="int" name="VOSKOWN">     0</i>
   <i type="logical" name="LHFCALC"> F  </i>
   <i type="string" name="PRECFOCK"></i>
   <i type="logical" name="LSYMGRAD"> F  </i>
   <i type="logical" name="LHFONE"> F  </i>
   <i type="logical" name="LRHFCALC"> F  </i>
   <i type="logical" name="LTHOMAS"> F  </i>
   <i type="logical" name="LMODELHF"> F  </i>
   <i name="ENCUT4O">     -1.00000000</i>
   <i type="int" name="EXXOEP">     0</i>
   <i type="int" name="FOURORBIT">     0</i>
   <i name="AEXX">      0.00000000</i>
   <i name="HFALPHA">      0.00000000</i>
   <i name="MCALPHA">      0.00000000</i>
   <i name="ALDAX">      1.00000000</i>
   <i name="AGGAX">      1.00000000</i>
   <i name="ALDAC">      1.00000000</i>
   <i name="AGGAC">      1.00000000</i>
   <i type="int" name="NKREDX">     1</i>
   <i type="int" name="NKREDY">     1</i>
   <i type="int" name="NKREDZ">     1</i>
   <i type="logical" name="SHIFTRED"> F  </i>
   <i type="logical" name="ODDONLY"> F  </i>
   <i type="logical" name="EVENONLY"> F  </i>
   <i type="int" name="LMAXFOCK">     0</i>
   <i type="int" name="NMAXFOCKAE">     0</i>
   <i type="logical" name="LFOCKAEDFT"> F  </i>
   <i name="HFSCREEN">      0.00000000</i>
   <i name="HFSCREENC">      0.00000000</i>
   <i type="int" name="NBANDSGWLOW">     0</i>
  </separator>
  <separator name="vdW DFT" >
   <i type="logical" name="LUSE_VDW"> F  </i>
   <i name="Zab_VDW">     -0.84910000</i>
   <i name="PARAM1">      0.12340000</i>
   <i name="PARAM2">      1.00000000</i>
   <i name="PARAM3">      0.00000000</i>
  </separator>
  <separator name="model GW" >
   <i type="int" name="MODEL_GW">     0</i>
   <i name="MODEL_EPS0">      7.46882445</i>
   <i name="MODEL_ALPHA">      1.00000000</i>
  </separator>
  <separator name="linear response parameters" >
   <i type="logical" name="LEPSILON"> F  </i>
   <i type="logical" name="LRPA"> F  </i>
   <i type="logical" name="LNABLA"> F  </i>
   <i type="logical" name="LVEL"> F  </i>
   <i type="int" name="KINTER">     0</i>
   <i name="CSHIFT">      0.10000000</i>
   <i name="OMEGAMAX">     -1.00000000</i>
   <i name="DEG_THRESHOLD">      0.00200000</i>
  </separator>
  <separator name="orbital magnetization" >
   <i type="logical" name="NUCIND"> F  </i>
   <v name="MAGPOS">      0.00000000      0.00000000      0.00000000</v>
   <i type="logical" name="LNICSALL"> T  </i>
   <i type="logical" name="ORBITALMAG"> F  </i>
   <i type="logical" name="LMAGBLOCH"> F  </i>
   <i type="logical" name="LCHIMAG"> F  </i>
   <i type="logical" name="LGAUGE"> T  </i>
   <i type="int" name="MAGATOM">     0</i>
   <v name="MAGDIPOL">      0.00000000      0.00000000      0.00000000</v>
   <v name="AVECCONST">      0.00000000      0.00000000      0.00000000</v>
  </separator>
  <separator name="response functions" >
   <i type="logical" name="LADDER"> F  </i>
   <i type="logical" name="LFXC"> F  </i>
   <i type="logical" name="LHARTREE"> T  </i>
   <i type="int" name="IBSE">     0</i>
   <i type="logical" name="LTCTE"> F  </i>
   <i type="logical" name="LTETE"> F  </i>
   <i type="logical" name="LTRIPLET"> F  </i>
   <i type="logical" name="LFXCEPS"> F  </i>
   <i type="logical" name="LFXHEG"> F  </i>
   <i type="logical" name="L2ORDER"> F  </i>
   <i type="logical" name="LUSEW"> F  </i>
   <i name="ENCUTGW">     -2.00000000</i>
   <i name="ENCUTGWSOFT">     -2.00000000</i>
   <i name="ENCUTLF">     -1.00000000</i>
   <i type="int" name="LMAXMP2">    -1</i>
   <i name="SCISSOR">      0.00000000</i>
   <i type="int" name="NOMEGA">     0</i>
   <i type="int" name="NOMEGAR">     0</i>
   <i type="int" name="NBANDSGW">    -1</i>
   <i type="int" name="NBANDSO">    -1</i>
   <i type="int" name="NBANDSV">    -1</i>
   <i type="int" name="NELM">   300</i>
   <i type="int" name="DIM">     3</i>
   <i type="int" name="ANTIRES">     0</i>
   <i name="OMEGAMAX">    -30.00000000</i>
   <i name="OMEGAMIN">    -30.00000000</i>
   <i name="OMEGATL">   -200.00000000</i>
   <i type="int" name="OMEGAGRID">     0</i>
   <i name="CSHIFT">     -0.10000000</i>
   <i type="logical" name="SELFENERGY"> F  </i>
   <i type="logical" name="LSPECTRAL"> F  </i>
   <i type="logical" name="ODDONLYGW"> F  </i>
   <i type="logical" name="EVENONLYGW"> F  </i>
   <i type="int" name="NKREDLFX">     1</i>
   <i type="int" name="NKREDLFY">     1</i>
   <i type="int" name="NKREDLFZ">     1</i>
   <i type="int" name="MAXMEM">  1800</i>
   <i type="int" name="TELESCOPE">     0</i>
   <i type="int" name="TAUPAR">     1</i>
  </separator>
  <separator name="External order field" >
   <i name="OFIELD_KAPPA">      0.00000000</i>
   <v name="OFIELD_K">      0.00000000      0.00000000      0.00000000</v>
   <i name="OFIELD_Q6_NEAR">      0.00000000</i>
   <i name="OFIELD_Q6_FAR">      0.00000000</i>
   <i name="OFIELD_A">      0.00000000</i>
  </separator>
 </parameters>
 <atominfo>
  <atoms>      24 </atoms>
  <types>       3 </types>
  <array name="atoms" >
   <dimension dim="1">ion</dimension>
   <field type="string">element</field>
   <field type="int">atomtype</field>
   <set>
    <rc><c>Fe</c><c>   1</c></rc>
    <rc><c>Fe</c><c>   1</c></rc>
    <rc><c>Fe</c><c>   1</c></rc>
    <rc><c>Fe</c><c>   1</c></rc>
    <rc><c>Fe</c><c>   1</c></rc>
    <rc><c>Fe</c><c>   1</c></rc>
    <rc><c>Fe</c><c>   1</c></rc>
    <rc><c>Fe</c><c>   1</c></rc>
    <rc><c>O </c><c>   2</c></rc>
    <rc><c>O </c><c>   2</c></rc>
    <rc><c>F </c><c>   3</c></rc>
    <rc><c>F </c><c>   3</c></rc>
    <rc><c>F </c><c>   3</c></rc>
    <rc><c>F </c><c>   3</c></rc>
    <rc><c>F </c><c>   3</c></rc>
    <rc><c>F </c><c>   3</c></rc>
    <rc><c>F </c><c>   3</c></rc>
    <rc><c>F </c><c>   3</c></rc>
    <rc><c>F </c><c>   3</c></rc>
    <rc><c>F </c><c>   3</c></rc>
    <rc><c>F </c><c>   3</c></rc>
    <rc><c>F </c><c>   3</c></rc>
    <rc><c>F </c><c>   3</c></rc>
    <rc><c>F </c><c>   3</c></rc>
   </set>
  </array>
  <array name="atomtypes" >
   <dimension dim="1">type</dimension>
   <field type="int">atomspertype</field>
   <field type="string">element</field>
   <field>mass</field>
   <field>valence</field>
   <field type="string">pseudopotential</field>
   <set>
    <rc><c>   8</c><c>Fe</c><c>     55.84700000</c><c>      8.00000000</c><c>  PAW_PBE Fe 06Sep2000                  </c></rc>
    <rc><c>   2</c><c>O </c><c>     16.00000000</c><c>      6.00000000</c><c>  PAW_PBE O 08Apr2002                   </c></rc>
    <rc><c>  14</c><c>F </c><c>     18.99800000</c><c>      7.00000000</c><c>  PAW_PBE F 08Apr2002                   </c></rc>
   </set>
  </array>
 </atominfo>
 <structure name="initialpos" >
  <crystal>
   <varray name="basis" >
    <v>       5.73591900       0.00000000      -0.79026700 </v>
    <v>       0.00000000       4.78544200       0.00000000 </v>
    <v>       0.00000000       0.00000000      10.88396600 </v>
   </varray>
   <i name="volume">    298.75297805 </i>
   <varray name="rec_basis" >
    <v>       0.17433998       0.00000000       0.00000000 </v>
    <v>       0.00000000       0.20896711       0.00000000 </v>
    <v>       0.01265854       0.00000000       0.09187827 </v>
   </varray>
  </crystal>
  <varray name="positions" >
   <v>       0.24699400       0.24850600       0.74623300 </v>
   <v>       0.24699400       0.75149400       0.24623300 </v>
   <v>       0.51485700       0.24497600       0.49879200 </v>
   <v>       0.51997300       0.76046300       0.99879200 </v>
   <v>       0.75373900       0.23127500       0.26486200 </v>
   <v>       0.75373900       0.76872500       0.76486200 </v>
   <v>       0.99045900       0.24137200       0.99652900 </v>
   <v>       0.99045900       0.75862800       0.49652900 </v>
   <v>       0.77857200       0.06722200       0.42016200 </v>
   <v>       0.77857200       0.94203100       0.91725200 </v>
   <v>       0.01370000       0.05755600       0.18278600 </v>
   <v>       0.01370000       0.94244400       0.68278600 </v>
   <v>       0.22224900       0.44944100       0.57080400 </v>
   <v>       0.22224900       0.55055900       0.07080400 </v>
   <v>       0.27923300       0.05174700       0.92203700 </v>
   <v>       0.27923300       0.94825300       0.42203700 </v>
   <v>       0.48187500       0.45353000       0.31584000 </v>
   <v>       0.48187500       0.54647000       0.81584000 </v>
   <v>       0.52253600       0.03560000       0.67416600 </v>
   <v>       0.52253600       0.96440000       0.17416600 </v>
   <v>       0.71445300       0.44302000       0.09109400 </v>
   <v>       0.72235300       0.55698000       0.59109400 </v>
   <v>       0.98289100       0.45650500       0.81960400 </v>
   <v>       0.97343300       0.54349500       0.31960400 </v>
  </varray>
 </structure>
 <calculation>
  <scstep>
   <time name="diag">    0.19    0.25</time>
   <time name="diis">    0.13    0.23</time>
   <time name="orth">    0.03    0.05</time>
   <time name="total">    0.65    0.94</time>
   <energy>
    <i name="alphaZ">    634.09262729 </i>
    <i name="ewald"> -10613.34373156 </i>
    <i name="hartreedc">  -4389.31616611 </i>
    <i name="XCdc">    595.48938833 </i>
    <i name="pawpsdc">  12680.77512887 </i>
    <i name="pawaedc"> -12817.41364524 </i>
    <i name="eentropy">     -0.11335572 </i>
    <i name="bandstr">   1174.52517032 </i>
    <i name="atom">  14851.27451460 </i>
    <i name="e_fr_energy">   2115.96993077 </i>
    <i name="e_wo_entrp">   2116.08328649 </i>
    <i name="e_0_energy">   2116.00771601 </i>
   </energy>
  </scstep>
  <scstep>
   <time name="diag">    0.05    0.07</time>
   <time name="diis">    0.11    0.17</time>
   <time name="orth">    0.12    0.21</time>
   <time name="total">    0.27    0.45</time>
   <energy>
    <i name="e_fr_energy">    654.52993575 </i>
    <i name="e_wo_entrp">    654.52167080 </i>
    <i name="e_0_energy">    654.52718077 </i>
   </energy>
  </scstep>
  <scstep>
   <time name="diag">    0.07    0.07</time>
   <time name="diis">    0.12    0.13</time>
   <time name="orth">    0.01    0.02</time>
   <time name="total">    0.19    0.21</time>
   <energy>
    <i name="e_fr_energy">    222.03071553 </i>
    <i name="e_wo_entrp">    222.33432201 </i>
    <i name="e_0_energy">    222.13191769 </i>
   </energy>
  </scstep>
  <scstep>
   <time name="diag">    0.03    0.06</time>
   <time name="diis">    0.10    0.19</time>
   <time name="orth">    0.01    0.02</time>
   <time name="total">    0.14    0.27</time>
   <energy>
    <i name="e_fr_energy">     38.15915256 </i>
    <i name="e_wo_entrp">     38.21827776 </i>
    <i name="e_0_energy">     38.17886096 </i>
   </energy>
  </scstep>
  <scstep>
   <time name="diag">    0.10    0.20</time>
   <time name="diis">    0.09    0.16</time>
   <time name="orth">    0.01    0.02</time>
   <time name="total">    0.21    0.39</time>
   <energy>
    <i name="e_fr_energy">    -65.67762842 </i>
    <i name="e_wo_entrp">    -65.64863888 </i>
    <i name="e_0_energy">    -65.66796524 </i>
   </energy>
  </scstep>
  <scstep>
   <time name="diag">    0.26    0.37</time>
   <time name="diis">    0.18    0.22</time>
   <time name="orth">    0.02    0.04</time>
   <time name="total">    0.46    0.63</time>
   <energy>
    <i name="e_fr_energy">   -112.67607086 </i>
    <i name="e_wo_entrp">   -112.65903986 </i>
    <i name="e_0_energy">   -112.67039386 </i>
   </energy>
  </scstep>
  <scstep>
   <time name="diag">    0.11    0.22</time>
   <time name="diis">    0.12    0.21</time>
   <time name="orth">    0.11    0.16</time>
   <time name="total">    0.34    0.58</time>
   <energy>
    <i name="e_fr_energy">   -136.33548352 </i>
    <i name="e_wo_entrp">   -136.35207645 </i>
    <i name="e_0_energy">   -136.34101450 </i>
   </energy>
  </scstep>
  <scstep>
   <time name="diag">    0.06    0.10</time>
   <time name="diis">    0.10    0.16</time>
   <time name="orth">    0.01    0.01</time>
   <time name="total">    0.16    0.26</time>
   <energy>
    <i name="e_fr_energy">   -145.98378076 </i>
    <i name="e_wo_entrp">   -146.01824989 </i>
    <i name="e_0_energy">   -145.99527047 </i>
   </energy>
  </scstep>
  <scstep>
   <time name="diag">    0.11    0.12</time>
   <time name="diis">    0.40    0.58</time>
   <time name="orth">    0.06    0.07</time>
   <time name="total">    0.57    0.77</time>
   <energy>
    <i name="e_fr_energy">   -155.53317860 </i>
    <i name="e_wo_entrp">   -155.57924253 </i>
    <i name="e_0_energy">   -155.54853324 </i>
   </energy>
  </scstep>
  <scstep>
   <time name="diag">    0.06    0.12</time>
   <time name="diis">    0.32    0.64</time>
   <time name="orth">    0.02    0.03</time>
   <time name="total">    0.39    0.79</time>
   <energy>
    <i name="e_fr_energy">   -155.70299599 </i>
    <i name="e_wo_entrp">   -155.72515927 </i>
    <i name="e_0_energy">   -155.71038375 </i>
   </energy>
  </scstep>
  <scstep>
   <time name="diag">    0.04    0.07</time>
   <time name="diis">    0.32    0.48</time>
   <time name="orth">    0.01    0.02</time>
   <time name="total">    0.37    0.57</time>
   <energy>
    <i name="e_fr_energy">   -155.89096276 </i>
    <i name="e_wo_entrp">   -155.90437674 </i>
    <i name="e_0_energy">   -155.89543409 </i>
   </energy>
  </scstep>
  <scstep>
   <time name="diag">    0.18    0.35</time>
   <time name="diis">    0.25    0.36</time>
   <time name="orth">    0.20    0.29</time>
   <time name="total">    0.78    1.18</time>
   <energy>
    <i name="e_fr_energy">   -156.02816003 </i>
    <i name="e_wo_entrp">   -156.04748958 </i>
    <i name="e_0_energy">   -156.03460321 </i>
   </energy>
  </scstep>
  <scstep>
   <time name="diag">    0.05    0.10</time>
   <time name="diis">    0.25    0.37</time>
   <time name="orth">    0.02    0.02</time>
   <time name="total">    0.52    0.75</time>
   <energy>
    <i name="e_fr_energy">   -149.81725608 </i>
    <i name="e_wo_entrp">   -149.88526117 </i>
    <i name="e_0_energy">   -149.83992444 </i>
   </energy>
  </scstep>
  <scstep>
   <time name="diag">    0.06    0.08</time>
   <time name="diis">    0.28    0.41</time>
   <time name="orth">    0.02    0.02</time>
   <time name="total">    0.57    0.79</time>
   <energy>
    <i name="e_fr_energy">   -179.42416982 </i>
    <i name="e_wo_entrp">   -179.42726317 </i>
    <i name="e_0_energy">   -179.42520094 </i>
   </energy>
  </scstep>
  <scstep>
   <time name="diag">    0.10    0.15</time>
   <time name="diis">    0.27    0.40</time>
   <time name="orth">    0.14    0.21</time>
   <time name="total">    0.80    1.11</time>
   <energy>
    <i name="e_fr_energy">   -137.15867984 </i>
    <i name="e_wo_entrp">   -137.21391918 </i>
    <i name="e_0_energy">   -137.17709295 </i>
   </energy>
  </scstep>
  <scstep>
   <time name="diag">    0.11    0.13</time>
   <time name="diis">    0.40    0.46</time>
   <time name="orth">    0.16    0.28</time>
   <time name="total">    0.80    1.09</time>
   <energy>
    <i name="e_fr_energy">   -145.43378182 </i>
    <i name="e_wo_entrp">   -145.39398238 </i>
    <i name="e_0_energy">   -145.42051534 </i>
   </energy>
  </scstep>
  <scstep>
   <time name="diag">    0.19    0.32</time>
   <time name="diis">    0.27    0.39</time>
   <time name="orth">    0.02    0.02</time>
   <time name="total">    0.62    0.96</time>
   <energy>
    <i name="e_fr_energy">   -155.50876039 </i>
    <i name="e_wo_entrp">   -155.56801258 </i>
    <i name="e_0_energy">   -155.52851112 </i>
   </energy>
  </scstep>
  <scstep>
   <time name="diag">    0.05    0.09</time>
   <time name="diis">    0.34    0.40</time>
   <time name="orth">    0.01    0.02</time>
   <time name="total">    0.47    0.61</time>
   <energy>
    <i name="e_fr_energy">   -144.09830576 </i>
    <i name="e_wo_entrp">   -144.12234640 </i>
    <i name="e_0_energy">   -144.10631930 </i>
   </energy>
  </scstep>
  <scstep>
   <time name="diag">    0.05    0.08</time>
   <time name="diis">    0.31    0.45</time>
   <time name="orth">    0.01    0.01</time>
   <time name="total">    0.47    0.72</time>
   <energy>
    <i name="e_fr_energy">   -152.15297537 </i>
    <i name="e_wo_entrp">   -152.04569573 </i>
    <i name="e_0_energy">   -152.11721549 </i>
   </energy>
  </scstep>
  <scstep>
   <time name="diag">    0.18    0.21</time>
   <time name="diis">    0.26    0.40</time>
   <time name="orth">    0.01    0.02</time>
   <time name="total">    0.59    0.85</time>
   <energy>
    <i name="e_fr_energy">   -144.81830807 </i>
    <i name="e_wo_entrp">   -144.83866905 </i>
    <i name="e_0_energy">   -144.82509506 </i>
   </energy>
  </scstep>
  <scstep>
   <time name="diag">    0.04    0.07</time>
   <time name="diis">    0.33    0.43</time>
   <time name="orth">    0.01    0.02</time>
   <time name="total">    0.54    0.72</time>
   <energy>
    <i name="e_fr_energy">   -138.34949686 </i>
    <i name="e_wo_entrp">   -138.32985061 </i>
    <i name="e_0_energy">   -138.34294811 </i>
   </energy>
  </scstep>
  <scstep>
   <time name="diag">    0.07    0.07</time>
   <time name="diis">    0.32    0.37</time>
   <time name="orth">    0.05    0.10</time>
   <time name="total">    0.64    0.77</time>
   <energy>
    <i name="e_fr_energy">   -138.54873016 </i>
    <i name="e_wo_entrp">   -138.54260165 </i>
    <i name="e_0_energy">   -138.54668732 </i>
   </energy>
  </scstep>
  <scstep>
   <time name="diag">    0.06    0.06</time>
   <time name="diis">    0.31    0.34</time>
   <time name="orth">    0.14    0.24</time>
   <time name="total">    0.68    0.86</time>
   <energy>
    <i name="e_fr_energy">   -136.94348744 </i>
    <i name="e_wo_entrp">   -136.95456976 </i>
    <i name="e_0_energy">   -136.94718155 </i>
   </energy>
  </scstep>
  <scstep>
   <time name="diag">    0.10    0.14</time>
   <time name="diis">    0.24    0.49</time>
   <time name="orth">    0.03    0.04</time>
   <time name="total">    0.91    1.49</time>
   <energy>
    <i name="e_fr_energy">   -133.79169466 </i>
    <i name="e_wo_entrp">   -133.83112744 </i>
    <i name="e_0_energy">   -133.80483892 </i>
   </energy>
  </scstep>
  <scstep>
   <time name="diag">    0.06    0.06</time>
   <time name="diis">    0.30    0.39</time>
   <time name="orth">    0.01    0.01</time>
   <time name="total">    0.58    0.72</time>
   <energy>
    <i name="e_fr_energy">   -133.01635599 </i>
    <i name="e_wo_entrp">   -133.04147913 </i>
    <i name="e_0_energy">   -133.02473037 </i>
   </energy>
  </scstep>
  <scstep>
   <time name="diag">    0.13    0.26</time>
   <time name="diis">    0.28    0.45</time>
   <time name="orth">    0.09    0.13</time>
   <time name="total">    0.56    0.95</time>
   <energy>
    <i name="e_fr_energy">   -132.59056397 </i>
    <i name="e_wo_entrp">   -132.55881182 </i>
    <i name="e_0_energy">   -132.57997992 </i>
   </energy>
  </scstep>
  <scstep>
   <time name="diag">    0.07    0.11</time>
   <time name="diis">    0.27    0.44</time>
   <time name="orth">    0.06    0.06</time>
   <time name="total">    0.57    0.83</time>
   <energy>
    <i name="e_fr_energy">   -132.44405313 </i>
    <i name="e_wo_entrp">   -132.43424460 </i>
    <i name="e_0_energy">   -132.44078362 </i>
   </energy>
  </scstep>
  <scstep>
   <time name="diag">    0.06    0.10</time>
   <time name="diis">    0.37    0.46</time>
   <time name="orth">    0.08    0.12</time>
   <time name="total">    0.84    1.16</time>
   <energy>
    <i name="e_fr_energy">   -132.44392355 </i>
    <i name="e_wo_entrp">   -132.43774204 </i>
    <i name="e_0_energy">   -132.44186305 </i>
   </energy>
  </scstep>
  <scstep>
   <time name="diag">    0.11    0.19</time>
   <time name="diis">    0.27    0.46</time>
   <time name="orth">    0.04    0.06</time>
   <time name="total">    0.58    0.89</time>
   <energy>
    <i name="e_fr_energy">   -132.49214534 </i>
    <i name="e_wo_entrp">   -132.48673285 </i>
    <i name="e_0_energy">   -132.49034118 </i>
   </energy>
  </scstep>
  <scstep>
   <time name="diag">    0.31    0.52</time>
   <time name="diis">    0.29    0.46</time>
   <time name="orth">    0.19    0.24</time>
   <time name="total">    0.99    1.49</time>
   <energy>
    <i name="e_fr_energy">   -132.55492712 </i>
    <i name="e_wo_entrp">   -132.56753140 </i>
    <i name="e_0_energy">   -132.55912855 </i>
   </energy>
  </scstep>
  <scstep>
   <time name="diag">    0.13    0.25</time>
   <time name="diis">    0.26    0.33</time>
   <time name="orth">    0.02    0.04</time>
   <time name="total">    0.61    0.90</time>
   <energy>
    <i name="e_fr_energy">   -132.56322420 </i>
    <i name="e_wo_entrp">   -132.58755340 </i>
    <i name="e_0_energy">   -132.57133394 </i>
   </energy>
  </scstep>
  <scstep>
   <time name="diag">    0.11    0.14</time>
   <time name="diis">    0.26    0.36</time>
   <time name="orth">    0.01    0.01</time>
   <time name="total">    0.52    0.69</time>
   <energy>
    <i name="e_fr_energy">   -132.56338732 </i>
    <i name="e_wo_entrp">   -132.58509191 </i>
    <i name="e_0_energy">   -132.57062218 </i>
   </energy>
  </scstep>
  <scstep>
   <time name="diag">    0.14    0.20</time>
   <time name="diis">    0.31    0.37</time>
   <time name="orth">    0.01    0.01</time>
   <time name="total">    0.69    0.90</time>
   <energy>
    <i name="e_fr_energy">   -132.56103998 </i>
    <i name="e_wo_entrp">   -132.58094170 </i>
    <i name="e_0_energy">   -132.56767389 </i>
   </energy>
  </scstep>
  <scstep>
   <time name="diag">    0.18    0.21</time>
   <time name="diis">    0.37    0.49</time>
   <time name="orth">    0.02    0.02</time>
   <time name="total">    0.65    0.80</time>
   <energy>
    <i name="e_fr_energy">   -132.56014057 </i>
    <i name="e_wo_entrp">   -132.57932994 </i>
    <i name="e_0_energy">   -132.56653703 </i>
   </energy>
  </scstep>
  <scstep>
   <time name="diag">    0.06    0.06</time>
   <time name="diis">    0.24    0.35</time>
   <time name="orth">    0.11    0.16</time>
   <time name="total">    0.55    0.72</time>
   <energy>
    <i name="e_fr_energy">   -132.55880182 </i>
    <i name="e_wo_entrp">   -132.57618898 </i>
    <i name="e_0_energy">   -132.56459754 </i>
   </energy>
  </scstep>
  <scstep>
   <time name="diag">    0.05    0.12</time>
   <time name="diis">    0.17    0.28</time>
   <time name="orth">    0.04    0.05</time>
   <time name="total">    0.42    0.62</time>
   <energy>
    <i name="e_fr_energy">   -132.55934332 </i>
    <i name="e_wo_entrp">   -132.57739149 </i>
    <i name="e_0_energy">   -132.56535938 </i>
   </energy>
  </scstep>
  <scstep>
   <time name="diag">    0.13    0.13</time>
   <time name="diis">    0.30    0.30</time>
   <time name="orth">    0.02    0.02</time>
   <time name="total">    0.62    0.68</time>
   <energy>
    <i name="e_fr_energy">   -132.55906009 </i>
    <i name="e_wo_entrp">   -132.57600552 </i>
    <i name="e_0_energy">   -132.56470856 </i>
   </energy>
  </scstep>
  <scstep>
   <time name="diag">    0.09    0.09</time>
   <time name="diis">    0.20    0.24</time>
   <time name="orth">    0.02    0.04</time>
   <time name="total">    0.41    0.49</time>
   <energy>
    <i name="e_fr_energy">   -132.55926488 </i>
    <i name="e_wo_entrp">   -132.57668290 </i>
    <i name="e_0_energy">   -132.56507089 </i>
   </energy>
  </scstep>
  <scstep>
   <time name="diag">    0.08    0.08</time>
   <time name="diis">    0.13    0.21</time>
   <time name="orth">    0.07    0.12</time>
   <time name="total">    0.50    0.63</time>
   <energy>
    <i name="alphaZ">    634.09262729 </i>
    <i name="ewald"> -10613.34373156 </i>
    <i name="hartreedc">  -4467.98116877 </i>
    <i name="XCdc">    604.68246587 </i>
    <i name="pawpsdc">  14866.31935470 </i>
    <i name="pawaedc"> -15006.99568776 </i>
    <i name="eentropy">      0.01692269 </i>
    <i name="bandstr">  -1000.62447840 </i>
    <i name="atom">  14851.27451460 </i>
    <i name="e_fr_energy">   -132.55918133 </i>
    <i name="e_wo_entrp">   -132.57610402 </i>
    <i name="e_0_energy">   -132.56482223 </i>
   </energy>
  </scstep>
  <structure>
   <crystal>
    <varray name="basis" >
     <v>       5.73591900       0.00000000      -0.79026700 </v>
     <v>       0.00000000       4.78544200       0.00000000 </v>
     <v>       0.00000000       0.00000000      10.88396600 </v>
    </varray>
    <i name="volume">    298.75297805 </i>
    <varray name="rec_basis" >
     <v>       0.17433998       0.00000000       0.00000000 </v>
     <v>       0.00000000       0.20896711       0.00000000 </v>
     <v>       0.01265854       0.00000000       0.09187827 </v>
    </varray>
   </crystal>
   <varray name="positions" >
    <v>       0.24699400       0.24850600       0.74623300 </v>
    <v>       0.24699400       0.75149400       0.24623300 </v>
    <v>       0.51485700       0.24497600       0.49879200 </v>
    <v>       0.51997300       0.76046300       0.99879200 </v>
    <v>       0.75373900       0.23127500       0.26486200 </v>
    <v>       0.75373900       0.76872500       0.76486200 </v>
    <v>       0.99045900       0.24137200       0.99652900 </v>
    <v>       0.99045900       0.75862800       0.49652900 </v>
    <v>       0.77857200       0.06722200       0.42016200 </v>
    <v>       0.77857200       0.94203100       0.91725200 </v>
    <v>       0.01370000       0.05755600       0.18278600 </v>
    <v>       0.01370000       0.94244400       0.68278600 </v>
    <v>       0.22224900       0.44944100       0.57080400 </v>
    <v>       0.22224900       0.55055900       0.07080400 </v>
    <v>       0.27923300       0.05174700       0.92203700 </v>
    <v>       0.27923300       0.94825300       0.42203700 </v>
    <v>       0.48187500       0.45353000       0.31584000 </v>
    <v>       0.48187500       0.54647000       0.81584000 </v>
    <v>       0.52253600       0.03560000       0.67416600 </v>
    <v>       0.52253600       0.96440000       0.17416600 </v>
    <v>       0.71445300       0.44302000       0.09109400 </v>
    <v>       0.72235300       0.55698000       0.59109400 </v>
    <v>       0.98289100       0.45650500       0.81960400 </v>
    <v>       0.97343300       0.54349500       0.31960400 </v>
   </varray>
  </structure>
  <varray name="forces" >
   <v>       0.22820739      -0.00725069      -0.25236334 </v>
   <v>       0.16169314      -0.00174640      -0.29092358 </v>
   <v>       0.99796626      -0.68363092      -0.79948177 </v>
   <v>       0.69309935       0.63286705      -0.84624465 </v>
   <v>       0.01676870       0.39213823      -0.06294357 </v>
   <v>       0.23969535      -0.30614543      -0.21863175 </v>
   <v>      -0.83362560      -1.22595229      -0.65354365 </v>
   <v>      -0.88884973       1.29637921      -0.49918585 </v>
   <v>      -0.49490192      -0.41739414       1.11361233 </v>
   <v>      -0.44674668       0.19198035       1.40095346 </v>
   <v>       0.24314093      -0.36600607       0.01051358 </v>
   <v>       0.26122568       0.39760370       0.02137157 </v>
   <v>       0.05868444      -0.22465177       0.23680368 </v>
   <v>      -0.01764115       0.18996160       0.33376821 </v>
   <v>      -0.14105932       0.27502443      -0.04619607 </v>
   <v>      -0.23580326      -0.26143332      -0.05220804 </v>
   <v>      -0.24716603      -0.08688931       0.57505185 </v>
   <v>      -0.16262099       0.09559569       0.54839166 </v>
   <v>      -0.36034155       0.68044325       0.16419702 </v>
   <v>      -0.25339915      -0.66016242       0.19893975 </v>
   <v>       0.44420613       0.06146443      -0.89967618 </v>
   <v>       0.21291600      -0.03388992      -0.87238646 </v>
   <v>       0.13600183      -0.37561532       0.46774986 </v>
   <v>       0.38855018       0.43731007       0.42243195 </v>
  </varray>
  <varray name="stress" >
   <v>    -243.55417246       0.10685258      21.94500594 </v>
   <v>       0.10685380    -259.55867070      -0.40333209 </v>
   <v>      21.94500831      -0.40333172    -289.67963559 </v>
  </varray>
  <energy>
   <i name="e_fr_energy">   -132.55918133 </i>
   <i name="e_wo_entrp">   -132.56482223 </i>
   <i name="e_0_energy">      0.01692269 </i>
  </energy>
  <time name="totalsc">   22.87   32.45</time>
  <eigenvalues>
   <array>
    <dimension dim="1">band</dimension>
    <dimension dim="2">kpoint</dimension>
    <dimension dim="3">spin</dimension>
    <field>eigene</field>
    <field>occ</field>
    <set>
     <set comment="spin 1">
      <set comment="kpoint 1">
       <r>  -22.6750    1.0000 </r>
       <r>  -22.5993    1.0000 </r>
       <r>  -22.3519    1.0000 </r>
       <r>  -22.3224    1.0000 </r>
       <r>  -22.2969    1.0000 </r>
       <r>  -22.2713    1.0000 </r>
       <r>  -22.2027    1.0000 </r>
       <r>  -22.1684    1.0000 </r>
       <r>  -22.1340    1.0000 </r>
       <r>  -22.1077    1.0000 </r>
       <r>  -21.9434    1.0000 </r>
       <r>  -21.8838    1.0000 </r>
       <r>  -21.8426    1.0000 </r>
       <r>  -21.7987    1.0000 </r>
       <r>  -16.8114    1.0000 </r>
       <r>  -16.7092    1.0000 </r>
       <r>   -6.1103    1.0000 </r>
       <r>   -5.7688    1.0000 </r>
       <r>   -5.3363    1.0000 </r>
       <r>   -5.2135    1.0000 </r>
       <r>   -5.1671    1.0000 </r>
       <r>   -5.0315    1.0000 </r>
       <r>   -4.9861    1.0000 </r>
       <r>   -4.9157    1.0000 </r>
       <r>   -4.8646    1.0000 </r>
       <r>   -4.8083    1.0000 </r>
       <r>   -4.7079    1.0000 </r>
       <r>   -4.5731    1.0000 </r>
       <r>   -4.5569    1.0000 </r>
       <r>   -4.5414    1.0000 </r>
       <r>   -4.3927    1.0000 </r>
       <r>   -4.3713    1.0000 </r>
       <r>   -4.3372    1.0000 </r>
       <r>   -4.2819    1.0000 </r>
       <r>   -4.2699    1.0000 </r>
       <r>   -4.2334    1.0000 </r>
       <r>   -4.2017    1.0000 </r>
       <r>   -4.1706    1.0000 </r>
       <r>   -4.0171    1.0000 </r>
       <r>   -4.0015    1.0000 </r>
       <r>   -3.9784    1.0000 </r>
       <r>   -3.9186    1.0000 </r>
       <r>   -3.8857    1.0000 </r>
       <r>   -3.8649    1.0000 </r>
       <r>   -3.6969    1.0000 </r>
       <r>   -3.6321    1.0000 </r>
       <r>   -3.4414    1.0000 </r>
       <r>   -3.3855    1.0000 </r>
       <r>   -3.3198    1.0000 </r>
       <r>   -3.2332    1.0000 </r>
       <r>   -3.0621    1.0000 </r>
       <r>   -3.0156    1.0000 </r>
       <r>   -2.9743    1.0000 </r>
       <r>   -2.9524    1.0000 </r>
       <r>   -2.7941    1.0000 </r>
       <r>   -2.7416    1.0000 </r>
       <r>   -2.7158    1.0000 </r>
       <r>   -2.6695    1.0000 </r>
       <r>   -2.4756    1.0000 </r>
       <r>   -2.4568    1.0000 </r>
       <r>   -2.3790    1.0000 </r>
       <r>   -2.2787    1.0000 </r>
       <r>   -1.6396    1.0000 </r>
       <r>   -1.5481    1.0000 </r>
       <r>    0.9186    1.0000 </r>
       <r>    0.9223    1.0000 </r>
       <r>    0.9901    1.0000 </r>
       <r>    1.0161    1.0001 </r>
       <r>    1.0412    1.0002 </r>
       <r>    1.0497    1.0002 </r>
       <r>    1.0608    1.0003 </r>
       <r>    1.0953    1.0006 </r>
       <r>    1.1619    1.0027 </r>
       <r>    1.1821    1.0040 </r>
       <r>    1.2347    1.0099 </r>
       <r>    1.2484    1.0121 </r>
       <r>    1.2951    1.0216 </r>
       <r>    1.3070    1.0244 </r>
       <r>    1.3440    1.0323 </r>
       <r>    1.3912    1.0345 </r>
       <r>    1.4147    1.0282 </r>
       <r>    1.4243    1.0235 </r>
       <r>    1.4655    0.9845 </r>
       <r>    1.5061    0.9088 </r>
       <r>    1.5312    0.8414 </r>
       <r>    1.5538    0.7683 </r>
       <r>    1.5726    0.6993 </r>
       <r>    1.6534    0.3658 </r>
       <r>    1.6595    0.3413 </r>
       <r>    1.8045   -0.0141 </r>
       <r>    1.8623   -0.0354 </r>
       <r>    1.9267   -0.0264 </r>
       <r>    1.9636   -0.0180 </r>
       <r>    2.0311   -0.0068 </r>
       <r>    2.1018   -0.0018 </r>
       <r>    2.1092   -0.0015 </r>
       <r>    2.3617   -0.0000 </r>
       <r>    2.4220   -0.0000 </r>
       <r>    2.7763   -0.0000 </r>
       <r>    2.8734   -0.0000 </r>
       <r>    2.9117   -0.0000 </r>
       <r>    2.9330   -0.0000 </r>
       <r>    3.0321   -0.0000 </r>
       <r>    3.2113   -0.0000 </r>
      </set>
     </set>
    </set>
   </array>
  </eigenvalues>
  <separator name="orbital magnetization" >
   <v name="MAGDIPOLOUT">      0.00000000      0.00000000      0.00000000</v>
  </separator>
  <dos>
   <i name="efermi">      1.62126021 </i>
   <total>
    <array>
     <dimension dim="1">gridpoints</dimension>
     <dimension dim="2">spin</dimension>
     <field>energy</field>
     <field>total</field>
     <field>integrated</field>
     <set>
      <set comment="spin 1">
       <r>   -24.6750     0.0000     0.0000 </r>
       <r>   -24.5753     0.0000     0.0000 </r>
       <r>   -24.4757     0.0000     0.0000 </r>
       <r>   -24.3761     0.0000     0.0000 </r>
       <r>   -24.2765    -0.0000    -0.0000 </r>
       <r>   -24.1769    -0.0000    -0.0000 </r>
       <r>   -24.0772    -0.0000    -0.0000 </r>
       <r>   -23.9776    -0.0000    -0.0000 </r>
       <r>   -23.8780    -0.0000    -0.0000 </r>
       <r>   -23.7784    -0.0000    -0.0000 </r>
       <r>   -23.6788    -0.0000    -0.0000 </r>
       <r>   -23.5791    -0.0000    -0.0000 </r>
       <r>   -23.4795    -0.0000    -0.0000 </r>
       <r>   -23.3799    -0.0001    -0.0000 </r>
       <r>   -23.2803    -0.0017    -0.0002 </r>
       <r>   -23.1807    -0.0218    -0.0023 </r>
       <r>   -23.0810    -0.1564    -0.0179 </r>
       <r>   -22.9814    -0.5591    -0.0736 </r>
       <r>   -22.8818    -0.4795    -0.1214 </r>
       <r>   -22.7822     2.9592     0.1734 </r>
       <r>   -22.6825    10.1499     1.1845 </r>
       <r>   -22.5829    13.5854     2.5379 </r>
       <r>   -22.4833    11.9528     3.7287 </r>
       <r>   -22.3837    19.4068     5.6620 </r>
       <r>   -22.2841    37.9445     9.4421 </r>
       <r>   -22.1844    47.9433    14.2182 </r>
       <r>   -22.0848    39.9066    18.1938 </r>
       <r>   -21.9852    28.2929    21.0123 </r>
       <r>   -21.8856    27.2509    23.7271 </r>
       <r>   -21.7860    26.6930    26.3863 </r>
       <r>   -21.6863    15.3491    27.9153 </r>
       <r>   -21.5867     3.0581    28.2200 </r>
       <r>   -21.4871    -1.1694    28.1035 </r>
       <r>   -21.3875    -0.8144    28.0224 </r>
       <r>   -21.2879    -0.1975    28.0027 </r>
       <r>   -21.1882    -0.0251    28.0002 </r>
       <r>   -21.0886    -0.0018    28.0000 </r>
       <r>   -20.9890    -0.0001    28.0000 </r>
       <r>   -20.8894    -0.0000    28.0000 </r>
       <r>   -20.7898    -0.0000    28.0000 </r>
       <r>   -20.6901    -0.0000    28.0000 </r>
       <r>   -20.5905    -0.0000    28.0000 </r>
       <r>   -20.4909    -0.0000    28.0000 </r>
       <r>   -20.3913     0.0000    28.0000 </r>
       <r>   -20.2916     0.0000    28.0000 </r>
       <r>   -20.1920     0.0000    28.0000 </r>
       <r>   -20.0924     0.0000    28.0000 </r>
       <r>   -19.9928     0.0000    28.0000 </r>
       <r>   -19.8932     0.0000    28.0000 </r>
       <r>   -19.7935     0.0000    28.0000 </r>
       <r>   -19.6939     0.0000    28.0000 </r>
       <r>   -19.5943     0.0000    28.0000 </r>
       <r>   -19.4947     0.0000    28.0000 </r>
       <r>   -19.3951     0.0000    28.0000 </r>
       <r>   -19.2954     0.0000    28.0000 </r>
       <r>   -19.1958     0.0000    28.0000 </r>
       <r>   -19.0962     0.0000    28.0000 </r>
       <r>   -18.9966     0.0000    28.0000 </r>
       <r>   -18.8970     0.0000    28.0000 </r>
       <r>   -18.7973     0.0000    28.0000 </r>
       <r>   -18.6977     0.0000    28.0000 </r>
       <r>   -18.5981     0.0000    28.0000 </r>
       <r>   -18.4985    -0.0000    28.0000 </r>
       <r>   -18.3989    -0.0000    28.0000 </r>
       <r>   -18.2992    -0.0000    28.0000 </r>
       <r>   -18.1996    -0.0000    28.0000 </r>
       <r>   -18.1000    -0.0000    28.0000 </r>
       <r>   -18.0004    -0.0000    28.0000 </r>
       <r>   -17.9007    -0.0000    28.0000 </r>
       <r>   -17.8011    -0.0000    28.0000 </r>
       <r>   -17.7015    -0.0000    28.0000 </r>
       <r>   -17.6019    -0.0000    28.0000 </r>
       <r>   -17.5023    -0.0001    28.0000 </r>
       <r>   -17.4026    -0.0024    27.9998 </r>
       <r>   -17.3030    -0.0277    27.9970 </r>
       <r>   -17.2034    -0.1785    27.9792 </r>
       <r>   -17.1038    -0.5548    27.9239 </r>
       <r>   -17.0042    -0.2347    27.9006 </r>
       <r>   -16.9045     3.5429    28.2535 </r>
       <r>   -16.8049    10.8913    29.3385 </r>
       <r>   -16.7053    14.7282    30.8058 </r>
       <r>   -16.6057    10.1301    31.8149 </r>
       <r>   -16.5061     2.9245    32.1063 </r>
       <r>   -16.4064    -0.3759    32.0688 </r>
       <r>   -16.3068    -0.5153    32.0175 </r>
       <r>   -16.2072    -0.1515    32.0024 </r>
       <r>   -16.1076    -0.0220    32.0002 </r>
       <r>   -16.0079    -0.0018    32.0000 </r>
       <r>   -15.9083    -0.0001    32.0000 </r>
       <r>   -15.8087    -0.0000    32.0000 </r>
       <r>   -15.7091    -0.0000    32.0000 </r>
       <r>   -15.6095    -0.0000    32.0000 </r>
       <r>   -15.5098    -0.0000    32.0000 </r>
       <r>   -15.4102    -0.0000    32.0000 </r>
       <r>   -15.3106     0.0000    32.0000 </r>
       <r>   -15.2110     0.0000    32.0000 </r>
       <r>   -15.1114     0.0000    32.0000 </r>
       <r>   -15.0117     0.0000    32.0000 </r>
       <r>   -14.9121     0.0000    32.0000 </r>
       <r>   -14.8125     0.0000    32.0000 </r>
       <r>   -14.7129     0.0000    32.0000 </r>
       <r>   -14.6133     0.0000    32.0000 </r>
       <r>   -14.5136     0.0000    32.0000 </r>
       <r>   -14.4140     0.0000    32.0000 </r>
       <r>   -14.3144     0.0000    32.0000 </r>
       <r>   -14.2148     0.0000    32.0000 </r>
       <r>   -14.1152     0.0000    32.0000 </r>
       <r>   -14.0155     0.0000    32.0000 </r>
       <r>   -13.9159     0.0000    32.0000 </r>
       <r>   -13.8163     0.0000    32.0000 </r>
       <r>   -13.7167     0.0000    32.0000 </r>
       <r>   -13.6170     0.0000    32.0000 </r>
       <r>   -13.5174     0.0000    32.0000 </r>
       <r>   -13.4178     0.0000    32.0000 </r>
       <r>   -13.3182     0.0000    32.0000 </r>
       <r>   -13.2186     0.0000    32.0000 </r>
       <r>   -13.1189     0.0000    32.0000 </r>
       <r>   -13.0193     0.0000    32.0000 </r>
       <r>   -12.9197     0.0000    32.0000 </r>
       <r>   -12.8201     0.0000    32.0000 </r>
       <r>   -12.7205     0.0000    32.0000 </r>
       <r>   -12.6208     0.0000    32.0000 </r>
       <r>   -12.5212     0.0000    32.0000 </r>
       <r>   -12.4216     0.0000    32.0000 </r>
       <r>   -12.3220     0.0000    32.0000 </r>
       <r>   -12.2224     0.0000    32.0000 </r>
       <r>   -12.1227     0.0000    32.0000 </r>
       <r>   -12.0231     0.0000    32.0000 </r>
       <r>   -11.9235     0.0000    32.0000 </r>
       <r>   -11.8239     0.0000    32.0000 </r>
       <r>   -11.7243     0.0000    32.0000 </r>
       <r>   -11.6246     0.0000    32.0000 </r>
       <r>   -11.5250     0.0000    32.0000 </r>
       <r>   -11.4254     0.0000    32.0000 </r>
       <r>   -11.3258     0.0000    32.0000 </r>
       <r>   -11.2261     0.0000    32.0000 </r>
       <r>   -11.1265     0.0000    32.0000 </r>
       <r>   -11.0269     0.0000    32.0000 </r>
       <r>   -10.9273     0.0000    32.0000 </r>
       <r>   -10.8277     0.0000    32.0000 </r>
       <r>   -10.7280     0.0000    32.0000 </r>
       <r>   -10.6284     0.0000    32.0000 </r>
       <r>   -10.5288     0.0000    32.0000 </r>
       <r>   -10.4292     0.0000    32.0000 </r>
       <r>   -10.3296     0.0000    32.0000 </r>
       <r>   -10.2299     0.0000    32.0000 </r>
       <r>   -10.1303     0.0000    32.0000 </r>
       <r>   -10.0307     0.0000    32.0000 </r>
       <r>    -9.9311     0.0000    32.0000 </r>
       <r>    -9.8315     0.0000    32.0000 </r>
       <r>    -9.7318     0.0000    32.0000 </r>
       <r>    -9.6322     0.0000    32.0000 </r>
       <r>    -9.5326     0.0000    32.0000 </r>
       <r>    -9.4330     0.0000    32.0000 </r>
       <r>    -9.3333     0.0000    32.0000 </r>
       <r>    -9.2337     0.0000    32.0000 </r>
       <r>    -9.1341     0.0000    32.0000 </r>
       <r>    -9.0345     0.0000    32.0000 </r>
       <r>    -8.9349     0.0000    32.0000 </r>
       <r>    -8.8352     0.0000    32.0000 </r>
       <r>    -8.7356     0.0000    32.0000 </r>
       <r>    -8.6360     0.0000    32.0000 </r>
       <r>    -8.5364     0.0000    32.0000 </r>
       <r>    -8.4368     0.0000    32.0000 </r>
       <r>    -8.3371     0.0000    32.0000 </r>
       <r>    -8.2375     0.0000    32.0000 </r>
       <r>    -8.1379     0.0000    32.0000 </r>
       <r>    -8.0383     0.0000    32.0000 </r>
       <r>    -7.9387     0.0000    32.0000 </r>
       <r>    -7.8390     0.0000    32.0000 </r>
       <r>    -7.7394    -0.0000    32.0000 </r>
       <r>    -7.6398    -0.0000    32.0000 </r>
       <r>    -7.5402    -0.0000    32.0000 </r>
       <r>    -7.4406    -0.0000    32.0000 </r>
       <r>    -7.3409    -0.0000    32.0000 </r>
       <r>    -7.2413    -0.0000    32.0000 </r>
       <r>    -7.1417    -0.0000    32.0000 </r>
       <r>    -7.0421    -0.0000    32.0000 </r>
       <r>    -6.9424    -0.0000    32.0000 </r>
       <r>    -6.8428    -0.0000    32.0000 </r>
       <r>    -6.7432    -0.0007    31.9999 </r>
       <r>    -6.6436    -0.0100    31.9989 </r>
       <r>    -6.5440    -0.0791    31.9911 </r>
       <r>    -6.4443    -0.3093    31.9602 </r>
       <r>    -6.3447    -0.3071    31.9296 </r>
       <r>    -6.2451     1.6630    32.0953 </r>
       <r>    -6.1455     5.9164    32.6847 </r>
       <r>    -6.0459     7.6906    33.4509 </r>
       <r>    -5.9462     5.2291    33.9718 </r>
       <r>    -5.8466     4.9003    34.4600 </r>
       <r>    -5.7470     7.3881    35.1960 </r>
       <r>    -5.6474     5.9480    35.7885 </r>
       <r>    -5.5478     1.5468    35.9426 </r>
       <r>    -5.4481     1.4994    36.0920 </r>
       <r>    -5.3485     8.0320    36.8921 </r>
       <r>    -5.2489    16.5405    38.5399 </r>
       <r>    -5.1493    21.7163    40.7033 </r>
       <r>    -5.0497    24.7851    43.1724 </r>
       <r>    -4.9500    29.2755    46.0889 </r>
       <r>    -4.8504    31.0954    49.1866 </r>
       <r>    -4.7508    26.9359    51.8700 </r>
       <r>    -4.6512    24.0500    54.2659 </r>
       <r>    -4.5515    27.1867    56.9743 </r>
       <r>    -4.4519    32.8316    60.2450 </r>
       <r>    -4.3523    42.1514    64.4441 </r>
       <r>    -4.2527    50.2940    69.4545 </r>
       <r>    -4.1531    45.6642    74.0036 </r>
       <r>    -4.0534    38.0223    77.7914 </r>
       <r>    -3.9538    40.3036    81.8065 </r>
       <r>    -3.8542    39.4040    85.7319 </r>
       <r>    -3.7546    27.7999    88.5014 </r>
       <r>    -3.6550    17.8705    90.2817 </r>
       <r>    -3.5553    14.5746    91.7336 </r>
       <r>    -3.4557    17.1236    93.4395 </r>
       <r>    -3.3561    22.8936    95.7202 </r>
       <r>    -3.2565    23.0291    98.0143 </r>
       <r>    -3.1569    19.4531    99.9523 </r>
       <r>    -3.0572    23.2223   102.2657 </r>
       <r>    -2.9576    29.9201   105.2464 </r>
       <r>    -2.8580    30.1609   108.2510 </r>
       <r>    -2.7584    29.8077   111.2205 </r>
       <r>    -2.6587    28.7124   114.0809 </r>
       <r>    -2.5591    23.4673   116.4187 </r>
       <r>    -2.4595    22.9134   118.7014 </r>
       <r>    -2.3599    24.9648   121.1884 </r>
       <r>    -2.2603    19.4238   123.1234 </r>
       <r>    -2.1606     8.8264   124.0027 </r>
       <r>    -2.0610     1.2593   124.1281 </r>
       <r>    -1.9614    -1.2322   124.0054 </r>
       <r>    -1.8618    -1.0715   123.8986 </r>
       <r>    -1.7622     1.9067   124.0886 </r>
       <r>    -1.6625     9.0816   124.9933 </r>
       <r>    -1.5629    14.8641   126.4741 </r>
       <r>    -1.4633    11.9760   127.6671 </r>
       <r>    -1.3637     4.2950   128.0950 </r>
       <r>    -1.2641    -0.0977   128.0853 </r>
       <r>    -1.1644    -0.6091   128.0246 </r>
       <r>    -1.0648    -0.2097   128.0037 </r>
       <r>    -0.9652    -0.0340   128.0003 </r>
       <r>    -0.8656    -0.0030   128.0000 </r>
       <r>    -0.7660    -0.0002   128.0000 </r>
       <r>    -0.6663    -0.0000   128.0000 </r>
       <r>    -0.5667    -0.0000   128.0000 </r>
       <r>    -0.4671    -0.0000   128.0000 </r>
       <r>    -0.3675    -0.0000   128.0000 </r>
       <r>    -0.2678    -0.0000   128.0000 </r>
       <r>    -0.1682    -0.0000   128.0000 </r>
       <r>    -0.0686    -0.0000   128.0000 </r>
       <r>     0.0310    -0.0000   128.0000 </r>
       <r>     0.1306    -0.0000   128.0000 </r>
       <r>     0.2303    -0.0003   128.0000 </r>
       <r>     0.3299    -0.0052   127.9995 </r>
       <r>     0.4295    -0.0629   127.9932 </r>
       <r>     0.5291    -0.4334   127.9500 </r>
       <r>     0.6287    -1.5646   127.7941 </r>
       <r>     0.7284    -1.8749   127.6074 </r>
       <r>     0.8280     6.0682   128.2119 </r>
       <r>     0.9276    28.8121   131.0822 </r>
       <r>     1.0272    55.1719   136.5784 </r>
       <r>     1.1268    65.7674   143.1303 </r>
       <r>     1.2265    63.2846   149.4347 </r>
       <r>     1.3261    63.1392   155.7247 </r>
       <r>     1.4257    66.6678   162.3662 </r>
       <r>     1.5253    65.3493   168.8764 </r>
       <r>     1.6249    53.0687   174.1631 </r>
       <r>     1.7246    35.1874   177.6685 </r>
       <r>     1.8242    26.5078   180.3093 </r>
       <r>     1.9238    30.7377   183.3714 </r>
       <r>     2.0234    35.7647   186.9343 </r>
       <r>     2.1231    30.9268   190.0152 </r>
       <r>     2.2227    18.8715   191.8952 </r>
       <r>     2.3223    12.7680   193.1672 </r>
       <r>     2.4219    14.0279   194.5647 </r>
       <r>     2.5215    10.4868   195.6094 </r>
       <r>     2.6212     3.5364   195.9617 </r>
       <r>     2.7208     5.6195   196.5215 </r>
       <r>     2.8204    18.6429   198.3787 </r>
       <r>     2.9200    30.4968   201.4168 </r>
       <r>     3.0196    29.0461   204.3104 </r>
       <r>     3.1193    18.6403   206.1674 </r>
       <r>     3.2189    10.9015   207.2534 </r>
       <r>     3.3185     6.3101   207.8820 </r>
       <r>     3.4181     2.0137   208.0826 </r>
       <r>     3.5177    -0.2666   208.0561 </r>
       <r>     3.6174    -0.4143   208.0148 </r>
       <r>     3.7170    -0.1278   208.0021 </r>
       <r>     3.8166    -0.0190   208.0002 </r>
       <r>     3.9162    -0.0015   208.0000 </r>
       <r>     4.0159    -0.0001   208.0000 </r>
       <r>     4.1155    -0.0000   208.0000 </r>
       <r>     4.2151    -0.0000   208.0000 </r>
       <r>     4.3147    -0.0000   208.0000 </r>
       <r>     4.4143    -0.0000   208.0000 </r>
       <r>     4.5140    -0.0000   208.0000 </r>
       <r>     4.6136     0.0000   208.0000 </r>
       <r>     4.7132     0.0000   208.0000 </r>
       <r>     4.8128     0.0000   208.0000 </r>
       <r>     4.9124     0.0000   208.0000 </r>
       <r>     5.0121     0.0000   208.0000 </r>
       <r>     5.1117     0.0000   208.0000 </r>
       <r>     5.2113     0.0000   208.0000 </r>
      </set>
     </set>
    </array>
   </total>
  </dos>
 </calculation>
 <structure name="finalpos" >
  <crystal>
   <varray name="basis" >
    <v>       5.73591900       0.00000000      -0.79026700 </v>
    <v>       0.00000000       4.78544200       0.00000000 </v>
    <v>       0.00000000       0.00000000      10.88396600 </v>
   </varray>
   <i name="volume">    298.75297805 </i>
   <varray name="rec_basis" >
    <v>       0.17433998       0.00000000       0.00000000 </v>
    <v>       0.00000000       0.20896711       0.00000000 </v>
    <v>       0.01265854       0.00000000       0.09187827 </v>
   </varray>
  </crystal>
  <varray name="positions" >
   <v>       0.24699400       0.24850600       0.74623300 </v>
   <v>       0.24699400       0.75149400       0.24623300 </v>
   <v>       0.51485700       0.24497600       0.49879200 </v>
   <v>       0.51997300       0.76046300       0.99879200 </v>
   <v>       0.75373900       0.23127500       0.26486200 </v>
   <v>       0.75373900       0.76872500       0.76486200 </v>
   <v>       0.99045900       0.24137200       0.99652900 </v>
   <v>       0.99045900       0.75862800       0.49652900 </v>
   <v>       0.77857200       0.06722200       0.42016200 </v>
   <v>       0.77857200       0.94203100       0.91725200 </v>
   <v>       0.01370000       0.05755600       0.18278600 </v>
   <v>       0.01370000       0.94244400       0.68278600 </v>
   <v>       0.22224900       0.44944100       0.57080400 </v>
   <v>       0.22224900       0.55055900       0.07080400 </v>
   <v>       0.27923300       0.05174700       0.92203700 </v>
   <v>       0.27923300       0.94825300       0.42203700 </v>
   <v>       0.48187500       0.45353000       0.31584000 </v>
   <v>       0.48187500       0.54647000       0.81584000 </v>
   <v>       0.52253600       0.03560000       0.67416600 </v>
   <v>       0.52253600       0.96440000       0.17416600 </v>
   <v>       0.71445300       0.44302000       0.09109400 </v>
   <v>       0.72235300       0.55698000       0.59109400 </v>
   <v>       0.98289100       0.45650500       0.81960400 </v>
   <v>       0.97343300       0.54349500       0.31960400 </v>
  </varray>
 </structure>
</modeling>
