<?xml version="1.0" encoding="ISO-8859-1"?>
<modeling>
 <generator>
  <i name="program" type="string">vasp </i>
  <i name="version" type="string">5.3.5  </i>
  <i name="subversion" type="string">31Mar14 (build Aug 29 2014 19:41:47) complex                          parallel </i>
  <i name="platform" type="string">LinuxIFC </i>
  <i name="date" type="string">2019 04 11 </i>
  <i name="time" type="string">16:04:34 </i>
 </generator>
 <incar>
  <i type="string" name="SYSTEM"> Fe6OF11_var_19</i>
  <i type="int" name="ISTART">     0</i>
  <i type="string" name="PREC">normal</i>
  <i type="string" name="ALGO"> VeryFast</i>
  <i type="int" name="ISPIN">     1</i>
  <i type="int" name="ICHARG">     2</i>
  <i type="int" name="NELM">   300</i>
  <i type="int" name="ISYM">     0</i>
  <i type="logical" name="LWAVE"> F  </i>
  <i type="int" name="NELM">   300</i>
 </incar>
 <kpoints>
  <generation param="Gamma">
   <v type="int" name="divisions">       1        1        1 </v>
   <v name="usershift">      0.00000000       0.00000000       0.00000000 </v>
   <v name="genvec1">      1.00000000       0.00000000       0.00000000 </v>
   <v name="genvec2">      0.00000000       1.00000000       0.00000000 </v>
   <v name="genvec3">      0.00000000       0.00000000       1.00000000 </v>
   <v name="shift">      0.00000000       0.00000000       0.00000000 </v>
  </generation>
  <varray name="kpointlist" >
   <v>       0.00000000       0.00000000       0.00000000 </v>
  </varray>
  <varray name="weights" >
   <v>       1.00000000 </v>
  </varray>
 </kpoints>
 <parameters>
  <separator name="general" >
   <i type="string" name="SYSTEM">Fe6OF11_var_19</i>
   <i type="logical" name="LCOMPAT"> F  </i>
  </separator>
  <separator name="electronic" >
   <i type="string" name="PREC">normal</i>
   <i name="ENMAX">    400.00000000</i>
   <i name="ENAUG">    613.61400000</i>
   <i name="EDIFF">      0.00010000</i>
   <i type="int" name="IALGO">    48</i>
   <i type="int" name="IWAVPR">    10</i>
   <i type="int" name="NBANDS">   160</i>
   <i name="NELECT">    262.00000000</i>
   <i type="int" name="TURBO">     0</i>
   <i type="int" name="IRESTART">     0</i>
   <i type="int" name="NREBOOT">     0</i>
   <i type="int" name="NMIN">     0</i>
   <i name="EREF">      0.00000000</i>
   <separator name="electronic smearing" >
    <i type="int" name="ISMEAR">     1</i>
    <i name="SIGMA">      0.20000000</i>
    <i name="KSPACING">      0.50000000</i>
    <i type="logical" name="KGAMMA"> T  </i>
   </separator>
   <separator name="electronic projectors" >
    <i type="logical" name="LREAL"> F  </i>
    <v name="ROPT">      0.00000000      0.00000000      0.00000000</v>
    <i type="int" name="LMAXPAW">  -100</i>
    <i type="int" name="LMAXMIX">     2</i>
    <i type="logical" name="NLSPLINE"> F  </i>
   </separator>
   <separator name="electronic startup" >
    <i type="int" name="ISTART">     0</i>
    <i type="int" name="ICHARG">     2</i>
    <i type="int" name="INIWAV">     1</i>
   </separator>
   <separator name="electronic spin" >
    <i type="int" name="ISPIN">     1</i>
    <i type="logical" name="LNONCOLLINEAR"> F  </i>
    <v name="MAGMOM">      1.00000000      1.00000000      1.00000000      1.00000000      1.00000000      1.00000000      1.00000000      1.00000000      1.00000000      1.00000000      1.00000000      1.00000000      1.00000000      1.00000000      1.00000000      1.00000000      1.00000000      1.00000000      1.00000000      1.00000000
      1.00000000      1.00000000      1.00000000      1.00000000      1.00000000      1.00000000      1.00000000      1.00000000      1.00000000      1.00000000      1.00000000      1.00000000      1.00000000      1.00000000      1.00000000      1.00000000</v>
    <i name="NUPDOWN">     -1.00000000</i>
    <i type="logical" name="LSORBIT"> F  </i>
    <v name="SAXIS">      0.00000000      0.00000000      1.00000000</v>
    <i type="logical" name="LSPIRAL"> F  </i>
    <v name="QSPIRAL">      0.00000000      0.00000000      0.00000000</v>
    <i type="logical" name="LZEROZ"> F  </i>
   </separator>
   <separator name="electronic exchange-correlation" >
    <i type="logical" name="LASPH"> F  </i>
    <i type="logical" name="LMETAGGA"> F  </i>
   </separator>
   <separator name="electronic convergence" >
    <i type="int" name="NELM">   300</i>
    <i type="int" name="NELMDL">   -12</i>
    <i type="int" name="NELMIN">     2</i>
    <i name="ENINI">    400.00000000</i>
    <separator name="electronic convergence detail" >
     <i type="logical" name="LDIAG"> T  </i>
     <i type="logical" name="LSUBROT"> F  </i>
     <i name="WEIMIN">      0.00000000</i>
     <i name="EBREAK">      0.00000016</i>
     <i name="DEPER">      0.30000000</i>
     <i type="int" name="NRMM">     4</i>
     <i name="TIME">      0.40000000</i>
    </separator>
   </separator>
   <separator name="electronic mixer" >
    <i name="AMIX">      0.40000000</i>
    <i name="BMIX">      1.00000000</i>
    <i name="AMIN">      0.10000000</i>
    <i name="AMIX_MAG">      1.60000000</i>
    <i name="BMIX_MAG">      1.00000000</i>
    <separator name="electronic mixer details" >
     <i type="int" name="IMIX">     4</i>
     <i type="int" name="MAXMIX">   -45</i>
     <i name="WC">    100.00000000</i>
     <i type="int" name="INIMIX">     1</i>
     <i type="int" name="MIXPRE">     1</i>
     <i type="int" name="MREMOVE">     5</i>
    </separator>
   </separator>
   <separator name="electronic dipolcorrection" >
    <i type="logical" name="LDIPOL"> F  </i>
    <i type="logical" name="LMONO"> F  </i>
    <i type="int" name="IDIPOL">     0</i>
    <i name="EPSILON">      1.00000000</i>
    <v name="DIPOL">   -100.00000000   -100.00000000   -100.00000000</v>
    <i name="EFIELD">      0.00000000</i>
   </separator>
  </separator>
  <separator name="grids" >
   <i type="int" name="NGX">    16</i>
   <i type="int" name="NGY">   108</i>
   <i type="int" name="NGZ">    36</i>
   <i type="int" name="NGXF">    32</i>
   <i type="int" name="NGYF">   216</i>
   <i type="int" name="NGZF">    72</i>
   <i type="logical" name="ADDGRID"> F  </i>
  </separator>
  <separator name="ionic" >
   <i type="int" name="NSW">     0</i>
   <i type="int" name="IBRION">    -1</i>
   <i type="int" name="ISIF">     2</i>
   <i name="PSTRESS">      0.00000000</i>
   <i name="EDIFFG">      0.00100000</i>
   <i type="int" name="NFREE">     0</i>
   <i name="POTIM">      0.50000000</i>
   <i name="SMASS">     -3.00000000</i>
   <i name="SCALEE">      1.00000000</i>
  </separator>
  <separator name="ionic md" >
   <i name="TEBEG">      0.00010000</i>
   <i name="TEEND">      0.00010000</i>
   <i type="int" name="NBLOCK">     1</i>
   <i type="int" name="KBLOCK">     1</i>
   <i type="int" name="NPACO">   256</i>
   <i name="APACO">     16.00000000</i>
  </separator>
  <separator name="symmetry" >
   <i type="int" name="ISYM">     0</i>
   <i name="SYMPREC">      0.00001000</i>
  </separator>
  <separator name="dos" >
   <i type="logical" name="LORBIT"> F  </i>
   <v name="RWIGS">     -1.00000000     -1.00000000     -1.00000000</v>
   <i type="int" name="NEDOS">   301</i>
   <i name="EMIN">     10.00000000</i>
   <i name="EMAX">    -10.00000000</i>
   <i name="EFERMI">      0.00000000</i>
  </separator>
  <separator name="writing" >
   <i type="int" name="NWRITE">     2</i>
   <i type="logical" name="LWAVE"> F  </i>
   <i type="logical" name="LCHARG"> T  </i>
   <i type="logical" name="LPARD"> F  </i>
   <i type="logical" name="LVTOT"> F  </i>
   <i type="logical" name="LVHAR"> F  </i>
   <i type="logical" name="LELF"> F  </i>
   <i type="logical" name="LOPTICS"> F  </i>
   <v name="STM">      0.00000000      0.00000000      0.00000000      0.00000000      0.00000000      0.00000000      0.00000000</v>
  </separator>
  <separator name="performance" >
   <i type="int" name="NPAR">     4</i>
   <i type="int" name="NSIM">     4</i>
   <i type="int" name="NBLK">    -1</i>
   <i type="logical" name="LPLANE"> T  </i>
   <i type="logical" name="LSCALAPACK"> T  </i>
   <i type="logical" name="LSCAAWARE"> F  </i>
   <i type="logical" name="LSCALU"> F  </i>
   <i type="logical" name="LASYNC"> F  </i>
   <i type="logical" name="LORBITALREAL"> F  </i>
  </separator>
  <separator name="miscellaneous" >
   <i type="int" name="IDIOT">     3</i>
   <i type="logical" name="LMUSIC"> F  </i>
   <v name="POMASS">     55.84700000     16.00000000     18.99800000</v>
   <v name="DARWINR">      0.00000000      0.00000000      0.00000000</v>
   <v name="DARWINV">      1.00000000      1.00000000      1.00000000</v>
   <i type="logical" name="LCORR"> T  </i>
  </separator>
  <i type="logical" name="GGA_COMPAT"> T  </i>
  <i type="logical" name="LBERRY"> F  </i>
  <i type="int" name="ICORELEVEL">     0</i>
  <i type="logical" name="LDAU"> F  </i>
  <i type="int" name="I_CONSTRAINED_M">     0</i>
  <separator name="electronic exchange-correlation" >
   <i type="string" name="GGA">--</i>
   <i type="int" name="VOSKOWN">     0</i>
   <i type="logical" name="LHFCALC"> F  </i>
   <i type="string" name="PRECFOCK"></i>
   <i type="logical" name="LSYMGRAD"> F  </i>
   <i type="logical" name="LHFONE"> F  </i>
   <i type="logical" name="LRHFCALC"> F  </i>
   <i type="logical" name="LTHOMAS"> F  </i>
   <i type="logical" name="LMODELHF"> F  </i>
   <i name="ENCUT4O">     -1.00000000</i>
   <i type="int" name="EXXOEP">     0</i>
   <i type="int" name="FOURORBIT">     0</i>
   <i name="AEXX">      0.00000000</i>
   <i name="HFALPHA">      0.00000000</i>
   <i name="MCALPHA">      0.00000000</i>
   <i name="ALDAX">      1.00000000</i>
   <i name="AGGAX">      1.00000000</i>
   <i name="ALDAC">      1.00000000</i>
   <i name="AGGAC">      1.00000000</i>
   <i type="int" name="NKREDX">     1</i>
   <i type="int" name="NKREDY">     1</i>
   <i type="int" name="NKREDZ">     1</i>
   <i type="logical" name="SHIFTRED"> F  </i>
   <i type="logical" name="ODDONLY"> F  </i>
   <i type="logical" name="EVENONLY"> F  </i>
   <i type="int" name="LMAXFOCK">     0</i>
   <i type="int" name="NMAXFOCKAE">     0</i>
   <i type="logical" name="LFOCKAEDFT"> F  </i>
   <i name="HFSCREEN">      0.00000000</i>
   <i name="HFSCREENC">      0.00000000</i>
   <i type="int" name="NBANDSGWLOW">     0</i>
  </separator>
  <separator name="vdW DFT" >
   <i type="logical" name="LUSE_VDW"> F  </i>
   <i name="Zab_VDW">     -0.84910000</i>
   <i name="PARAM1">      0.12340000</i>
   <i name="PARAM2">      1.00000000</i>
   <i name="PARAM3">      0.00000000</i>
  </separator>
  <separator name="model GW" >
   <i type="int" name="MODEL_GW">     0</i>
   <i name="MODEL_EPS0">      7.56646665</i>
   <i name="MODEL_ALPHA">      1.00000000</i>
  </separator>
  <separator name="linear response parameters" >
   <i type="logical" name="LEPSILON"> F  </i>
   <i type="logical" name="LRPA"> F  </i>
   <i type="logical" name="LNABLA"> F  </i>
   <i type="logical" name="LVEL"> F  </i>
   <i type="int" name="KINTER">     0</i>
   <i name="CSHIFT">      0.10000000</i>
   <i name="OMEGAMAX">     -1.00000000</i>
   <i name="DEG_THRESHOLD">      0.00200000</i>
  </separator>
  <separator name="orbital magnetization" >
   <i type="logical" name="NUCIND"> F  </i>
   <v name="MAGPOS">      0.00000000      0.00000000      0.00000000</v>
   <i type="logical" name="LNICSALL"> T  </i>
   <i type="logical" name="ORBITALMAG"> F  </i>
   <i type="logical" name="LMAGBLOCH"> F  </i>
   <i type="logical" name="LCHIMAG"> F  </i>
   <i type="logical" name="LGAUGE"> T  </i>
   <i type="int" name="MAGATOM">     0</i>
   <v name="MAGDIPOL">      0.00000000      0.00000000      0.00000000</v>
   <v name="AVECCONST">      0.00000000      0.00000000      0.00000000</v>
  </separator>
  <separator name="response functions" >
   <i type="logical" name="LADDER"> F  </i>
   <i type="logical" name="LFXC"> F  </i>
   <i type="logical" name="LHARTREE"> T  </i>
   <i type="int" name="IBSE">     0</i>
   <i type="logical" name="LTCTE"> F  </i>
   <i type="logical" name="LTETE"> F  </i>
   <i type="logical" name="LTRIPLET"> F  </i>
   <i type="logical" name="LFXCEPS"> F  </i>
   <i type="logical" name="LFXHEG"> F  </i>
   <i type="logical" name="L2ORDER"> F  </i>
   <i type="logical" name="LUSEW"> F  </i>
   <i name="ENCUTGW">     -2.00000000</i>
   <i name="ENCUTGWSOFT">     -2.00000000</i>
   <i name="ENCUTLF">     -1.00000000</i>
   <i type="int" name="LMAXMP2">    -1</i>
   <i name="SCISSOR">      0.00000000</i>
   <i type="int" name="NOMEGA">     0</i>
   <i type="int" name="NOMEGAR">     0</i>
   <i type="int" name="NBANDSGW">    -1</i>
   <i type="int" name="NBANDSO">    -1</i>
   <i type="int" name="NBANDSV">    -1</i>
   <i type="int" name="NELM">   300</i>
   <i type="int" name="DIM">     3</i>
   <i type="int" name="ANTIRES">     0</i>
   <i name="OMEGAMAX">    -30.00000000</i>
   <i name="OMEGAMIN">    -30.00000000</i>
   <i name="OMEGATL">   -200.00000000</i>
   <i type="int" name="OMEGAGRID">     0</i>
   <i name="CSHIFT">     -0.10000000</i>
   <i type="logical" name="SELFENERGY"> F  </i>
   <i type="logical" name="LSPECTRAL"> F  </i>
   <i type="logical" name="ODDONLYGW"> F  </i>
   <i type="logical" name="EVENONLYGW"> F  </i>
   <i type="int" name="NKREDLFX">     1</i>
   <i type="int" name="NKREDLFY">     1</i>
   <i type="int" name="NKREDLFZ">     1</i>
   <i type="int" name="MAXMEM">  1800</i>
   <i type="int" name="TELESCOPE">     0</i>
   <i type="int" name="TAUPAR">     1</i>
  </separator>
  <separator name="External order field" >
   <i name="OFIELD_KAPPA">      0.00000000</i>
   <v name="OFIELD_K">      0.00000000      0.00000000      0.00000000</v>
   <i name="OFIELD_Q6_NEAR">      0.00000000</i>
   <i name="OFIELD_Q6_FAR">      0.00000000</i>
   <i name="OFIELD_A">      0.00000000</i>
  </separator>
 </parameters>
 <atominfo>
  <atoms>      36 </atoms>
  <types>       3 </types>
  <array name="atoms" >
   <dimension dim="1">ion</dimension>
   <field type="string">element</field>
   <field type="int">atomtype</field>
   <set>
    <rc><c>Fe</c><c>   1</c></rc>
    <rc><c>Fe</c><c>   1</c></rc>
    <rc><c>Fe</c><c>   1</c></rc>
    <rc><c>Fe</c><c>   1</c></rc>
    <rc><c>Fe</c><c>   1</c></rc>
    <rc><c>Fe</c><c>   1</c></rc>
    <rc><c>Fe</c><c>   1</c></rc>
    <rc><c>Fe</c><c>   1</c></rc>
    <rc><c>Fe</c><c>   1</c></rc>
    <rc><c>Fe</c><c>   1</c></rc>
    <rc><c>Fe</c><c>   1</c></rc>
    <rc><c>Fe</c><c>   1</c></rc>
    <rc><c>O </c><c>   2</c></rc>
    <rc><c>O </c><c>   2</c></rc>
    <rc><c>F </c><c>   3</c></rc>
    <rc><c>F </c><c>   3</c></rc>
    <rc><c>F </c><c>   3</c></rc>
    <rc><c>F </c><c>   3</c></rc>
    <rc><c>F </c><c>   3</c></rc>
    <rc><c>F </c><c>   3</c></rc>
    <rc><c>F </c><c>   3</c></rc>
    <rc><c>F </c><c>   3</c></rc>
    <rc><c>F </c><c>   3</c></rc>
    <rc><c>F </c><c>   3</c></rc>
    <rc><c>F </c><c>   3</c></rc>
    <rc><c>F </c><c>   3</c></rc>
    <rc><c>F </c><c>   3</c></rc>
    <rc><c>F </c><c>   3</c></rc>
    <rc><c>F </c><c>   3</c></rc>
    <rc><c>F </c><c>   3</c></rc>
    <rc><c>F </c><c>   3</c></rc>
    <rc><c>F </c><c>   3</c></rc>
    <rc><c>F </c><c>   3</c></rc>
    <rc><c>F </c><c>   3</c></rc>
    <rc><c>F </c><c>   3</c></rc>
    <rc><c>F </c><c>   3</c></rc>
   </set>
  </array>
  <array name="atomtypes" >
   <dimension dim="1">type</dimension>
   <field type="int">atomspertype</field>
   <field type="string">element</field>
   <field>mass</field>
   <field>valence</field>
   <field type="string">pseudopotential</field>
   <set>
    <rc><c>  12</c><c>Fe</c><c>     55.84700000</c><c>      8.00000000</c><c>  PAW_PBE Fe 06Sep2000                  </c></rc>
    <rc><c>   2</c><c>O </c><c>     16.00000000</c><c>      6.00000000</c><c>  PAW_PBE O 08Apr2002                   </c></rc>
    <rc><c>  22</c><c>F </c><c>     18.99800000</c><c>      7.00000000</c><c>  PAW_PBE F 08Apr2002                   </c></rc>
   </set>
  </array>
 </atominfo>
 <structure name="initialpos" >
  <crystal>
   <varray name="basis" >
    <v>       3.25262800       0.00000000       0.00000000 </v>
    <v>       0.00000000      20.54938400       0.00000000 </v>
    <v>       0.00000000       0.00000000       6.79221100 </v>
   </varray>
   <i name="volume">    453.98799923 </i>
   <varray name="rec_basis" >
    <v>       0.30744370       0.00000000       0.00000000 </v>
    <v>       0.00000000       0.04866326       0.00000000 </v>
    <v>       0.00000000       0.00000000       0.14722746 </v>
   </varray>
  </crystal>
  <varray name="positions" >
   <v>       0.00000000       0.16671900       0.50139100 </v>
   <v>       0.00000000       0.83328100       0.50139100 </v>
   <v>       0.00000000       0.66671900       0.00139100 </v>
   <v>       0.00000000       0.33328100       0.00139100 </v>
   <v>       0.50000000       0.16602100       0.00000400 </v>
   <v>       0.50000000       0.83397900       0.00000400 </v>
   <v>       0.49969400       0.66602100       0.50000400 </v>
   <v>       0.50000000       0.33397900       0.50000400 </v>
   <v>       0.00000000       0.00000000       0.01216200 </v>
   <v>       0.00000000       0.50000000       0.51216200 </v>
   <v>       0.50000000       0.00000000       0.47240000 </v>
   <v>       0.50000000       0.50000000       0.97240000 </v>
   <v>       0.00000000       0.00000000       0.31436200 </v>
   <v>       0.00530800       0.50000000       0.81436200 </v>
   <v>       0.00000000       0.16816900       0.20329900 </v>
   <v>       0.00000000       0.83183100       0.20329900 </v>
   <v>       0.00000000       0.66945800       0.70329900 </v>
   <v>       0.00000000       0.33183100       0.70329900 </v>
   <v>       0.00000000       0.16838200       0.79934600 </v>
   <v>       0.99877100       0.83161800       0.79934600 </v>
   <v>       0.00000000       0.66838200       0.29934600 </v>
   <v>       0.00000000       0.33161800       0.29934600 </v>
   <v>       0.50000000       0.06837200       0.99633700 </v>
   <v>       0.50000000       0.93162800       0.99633700 </v>
   <v>       0.49502600       0.56837200       0.49633700 </v>
   <v>       0.50000000       0.43162800       0.49633700 </v>
   <v>       0.50000000       0.09818400       0.51103000 </v>
   <v>       0.50000000       0.90181600       0.50567900 </v>
   <v>       0.50000000       0.59818400       0.00567900 </v>
   <v>       0.50586600       0.40181600       0.00567900 </v>
   <v>       0.50000000       0.23406000       0.50924000 </v>
   <v>       0.50000000       0.76594000       0.50152500 </v>
   <v>       0.50000000       0.73406000       0.00152500 </v>
   <v>       0.50000000       0.26594000       0.00152500 </v>
   <v>       0.00000000       0.00000000       0.69474100 </v>
   <v>       0.00000000       0.50534800       0.19474100 </v>
  </varray>
 </structure>
 <calculation>
  <scstep>
   <time name="diag">    0.25    0.38</time>
   <time name="diis">    0.40    0.49</time>
   <time name="orth">    0.17    0.28</time>
   <time name="total">    1.09    1.54</time>
   <energy>
    <i name="alphaZ">    943.57652748 </i>
    <i name="ewald"> -15990.27763201 </i>
    <i name="hartreedc">  -6694.67787852 </i>
    <i name="XCdc">    902.21475211 </i>
    <i name="pawpsdc">  19213.82102697 </i>
    <i name="pawaedc"> -19422.08171028 </i>
    <i name="eentropy">      0.05613693 </i>
    <i name="bandstr">   1810.51076705 </i>
    <i name="atom">  22504.09828397 </i>
    <i name="e_fr_energy">   3267.24027370 </i>
    <i name="e_wo_entrp">   3267.18413677 </i>
    <i name="e_0_energy">   3267.22156139 </i>
   </energy>
  </scstep>
  <scstep>
   <time name="diag">    0.29    0.29</time>
   <time name="diis">    0.45    0.50</time>
   <time name="orth">    0.04    0.08</time>
   <time name="total">    0.79    0.87</time>
   <energy>
    <i name="e_fr_energy">   1021.87108402 </i>
    <i name="e_wo_entrp">   1021.86673003 </i>
    <i name="e_0_energy">   1021.86963269 </i>
   </energy>
  </scstep>
  <scstep>
   <time name="diag">    0.26    0.41</time>
   <time name="diis">    0.38    0.54</time>
   <time name="orth">    0.11    0.14</time>
   <time name="total">    0.75    1.09</time>
   <energy>
    <i name="e_fr_energy">    344.31096739 </i>
    <i name="e_wo_entrp">    344.33730075 </i>
    <i name="e_0_energy">    344.31974518 </i>
   </energy>
  </scstep>
  <scstep>
   <time name="diag">    0.19    0.19</time>
   <time name="diis">    0.40    0.65</time>
   <time name="orth">    0.05    0.09</time>
   <time name="total">    0.64    0.93</time>
   <energy>
    <i name="e_fr_energy">     65.83379024 </i>
    <i name="e_wo_entrp">     65.74479750 </i>
    <i name="e_0_energy">     65.80412600 </i>
   </energy>
  </scstep>
  <scstep>
   <time name="diag">    0.38    0.59</time>
   <time name="diis">    0.43    0.57</time>
   <time name="orth">    0.05    0.05</time>
   <time name="total">    0.86    1.21</time>
   <energy>
    <i name="e_fr_energy">    -92.87348081 </i>
    <i name="e_wo_entrp">    -92.99435139 </i>
    <i name="e_0_energy">    -92.91377101 </i>
   </energy>
  </scstep>
  <scstep>
   <time name="diag">    0.20    0.22</time>
   <time name="diis">    0.42    0.60</time>
   <time name="orth">    0.05    0.08</time>
   <time name="total">    0.69    0.92</time>
   <energy>
    <i name="e_fr_energy">   -162.38281250 </i>
    <i name="e_wo_entrp">   -162.51365909 </i>
    <i name="e_0_energy">   -162.42642803 </i>
   </energy>
  </scstep>
  <scstep>
   <time name="diag">    0.23    0.34</time>
   <time name="diis">    0.34    0.55</time>
   <time name="orth">    0.18    0.26</time>
   <time name="total">    0.76    1.15</time>
   <energy>
    <i name="e_fr_energy">   -196.26917035 </i>
    <i name="e_wo_entrp">   -196.46159351 </i>
    <i name="e_0_energy">   -196.33331140 </i>
   </energy>
  </scstep>
  <scstep>
   <time name="diag">    0.27    0.39</time>
   <time name="diis">    0.36    0.56</time>
   <time name="orth">    0.03    0.03</time>
   <time name="total">    0.67    0.98</time>
   <energy>
    <i name="e_fr_energy">   -209.16008562 </i>
    <i name="e_wo_entrp">   -209.39834314 </i>
    <i name="e_0_energy">   -209.23950479 </i>
   </energy>
  </scstep>
  <scstep>
   <time name="diag">    0.26    0.33</time>
   <time name="diis">    1.29    1.70</time>
   <time name="orth">    0.04    0.06</time>
   <time name="total">    1.58    2.09</time>
   <energy>
    <i name="e_fr_energy">   -221.83528707 </i>
    <i name="e_wo_entrp">   -222.07438652 </i>
    <i name="e_0_energy">   -221.91498689 </i>
   </energy>
  </scstep>
  <scstep>
   <time name="diag">    0.19    0.31</time>
   <time name="diis">    1.12    1.83</time>
   <time name="orth">    0.09    0.15</time>
   <time name="total">    1.40    2.29</time>
   <energy>
    <i name="e_fr_energy">   -222.21261357 </i>
    <i name="e_wo_entrp">   -222.42506183 </i>
    <i name="e_0_energy">   -222.28342966 </i>
   </energy>
  </scstep>
  <scstep>
   <time name="diag">    0.15    0.18</time>
   <time name="diis">    1.09    1.52</time>
   <time name="orth">    0.04    0.06</time>
   <time name="total">    1.28    1.76</time>
   <energy>
    <i name="e_fr_energy">   -222.49792605 </i>
    <i name="e_wo_entrp">   -222.66717408 </i>
    <i name="e_0_energy">   -222.55434206 </i>
   </energy>
  </scstep>
  <scstep>
   <time name="diag">    0.27    0.35</time>
   <time name="diis">    1.15    1.50</time>
   <time name="orth">    0.04    0.04</time>
   <time name="total">    1.59    2.13</time>
   <energy>
    <i name="e_fr_energy">   -222.66401303 </i>
    <i name="e_wo_entrp">   -222.79898457 </i>
    <i name="e_0_energy">   -222.70900355 </i>
   </energy>
  </scstep>
  <scstep>
   <time name="diag">    0.17    0.26</time>
   <time name="diis">    0.83    1.19</time>
   <time name="orth">    0.03    0.03</time>
   <time name="total">    1.23    1.76</time>
   <energy>
    <i name="e_fr_energy">   -208.25519583 </i>
    <i name="e_wo_entrp">   -208.11806947 </i>
    <i name="e_0_energy">   -208.20948705 </i>
   </energy>
  </scstep>
  <scstep>
   <time name="diag">    0.29    0.42</time>
   <time name="diis">    0.88    1.16</time>
   <time name="orth">    0.04    0.04</time>
   <time name="total">    1.62    2.19</time>
   <energy>
    <i name="e_fr_energy">   -275.23866348 </i>
    <i name="e_wo_entrp">   -275.16494821 </i>
    <i name="e_0_energy">   -275.21409172 </i>
   </energy>
  </scstep>
  <scstep>
   <time name="diag">    0.18    0.23</time>
   <time name="diis">    0.91    1.22</time>
   <time name="orth">    0.11    0.22</time>
   <time name="total">    1.46    2.10</time>
   <energy>
    <i name="e_fr_energy">   -269.18783607 </i>
    <i name="e_wo_entrp">   -269.14057364 </i>
    <i name="e_0_energy">   -269.17208192 </i>
   </energy>
  </scstep>
  <scstep>
   <time name="diag">    0.33    0.47</time>
   <time name="diis">    0.82    1.17</time>
   <time name="orth">    0.02    0.04</time>
   <time name="total">    1.46    2.06</time>
   <energy>
    <i name="e_fr_energy">   -215.13650497 </i>
    <i name="e_wo_entrp">   -215.27043332 </i>
    <i name="e_0_energy">   -215.18114776 </i>
   </energy>
  </scstep>
  <scstep>
   <time name="diag">    0.36    0.53</time>
   <time name="diis">    0.80    1.12</time>
   <time name="orth">    0.19    0.20</time>
   <time name="total">    1.64    2.22</time>
   <energy>
    <i name="e_fr_energy">   -231.68372171 </i>
    <i name="e_wo_entrp">   -231.74316965 </i>
    <i name="e_0_energy">   -231.70353769 </i>
   </energy>
  </scstep>
  <scstep>
   <time name="diag">    0.18    0.29</time>
   <time name="diis">    0.70    1.14</time>
   <time name="orth">    0.04    0.06</time>
   <time name="total">    1.47    2.23</time>
   <energy>
    <i name="e_fr_energy">   -235.65037325 </i>
    <i name="e_wo_entrp">   -235.59101362 </i>
    <i name="e_0_energy">   -235.63058670 </i>
   </energy>
  </scstep>
  <scstep>
   <time name="diag">    0.35    0.60</time>
   <time name="diis">    0.77    1.07</time>
   <time name="orth">    0.03    0.04</time>
   <time name="total">    1.42    2.12</time>
   <energy>
    <i name="e_fr_energy">   -218.27730139 </i>
    <i name="e_wo_entrp">   -218.42493515 </i>
    <i name="e_0_energy">   -218.32651265 </i>
   </energy>
  </scstep>
  <scstep>
   <time name="diag">    0.23    0.31</time>
   <time name="diis">    0.98    1.19</time>
   <time name="orth">    0.04    0.04</time>
   <time name="total">    1.45    1.82</time>
   <energy>
    <i name="e_fr_energy">   -224.14570819 </i>
    <i name="e_wo_entrp">   -224.06842492 </i>
    <i name="e_0_energy">   -224.11994710 </i>
   </energy>
  </scstep>
  <scstep>
   <time name="diag">    0.13    0.23</time>
   <time name="diis">    0.79    1.14</time>
   <time name="orth">    0.16    0.20</time>
   <time name="total">    1.43    2.13</time>
   <energy>
    <i name="e_fr_energy">   -232.08115911 </i>
    <i name="e_wo_entrp">   -231.99614687 </i>
    <i name="e_0_energy">   -232.05282170 </i>
   </energy>
  </scstep>
  <scstep>
   <time name="diag">    0.29    0.36</time>
   <time name="diis">    0.83    1.08</time>
   <time name="orth">    0.03    0.05</time>
   <time name="total">    1.34    1.82</time>
   <energy>
    <i name="e_fr_energy">   -221.80275790 </i>
    <i name="e_wo_entrp">   -221.75190838 </i>
    <i name="e_0_energy">   -221.78580806 </i>
   </energy>
  </scstep>
  <scstep>
   <time name="diag">    0.24    0.27</time>
   <time name="diis">    0.72    1.10</time>
   <time name="orth">    0.05    0.11</time>
   <time name="total">    1.30    1.90</time>
   <energy>
    <i name="e_fr_energy">   -224.73085674 </i>
    <i name="e_wo_entrp">   -224.78018346 </i>
    <i name="e_0_energy">   -224.74729898 </i>
   </energy>
  </scstep>
  <scstep>
   <time name="diag">    0.27    0.50</time>
   <time name="diis">    0.65    1.05</time>
   <time name="orth">    0.02    0.02</time>
   <time name="total">    1.24    2.06</time>
   <energy>
    <i name="e_fr_energy">   -233.64125891 </i>
    <i name="e_wo_entrp">   -233.57975251 </i>
    <i name="e_0_energy">   -233.62075677 </i>
   </energy>
  </scstep>
  <scstep>
   <time name="diag">    0.11    0.22</time>
   <time name="diis">    0.68    1.05</time>
   <time name="orth">    0.03    0.07</time>
   <time name="total">    1.19    1.84</time>
   <energy>
    <i name="e_fr_energy">   -234.72445480 </i>
    <i name="e_wo_entrp">   -234.70356379 </i>
    <i name="e_0_energy">   -234.71749113 </i>
   </energy>
  </scstep>
  <scstep>
   <time name="diag">    0.37    0.56</time>
   <time name="diis">    0.78    1.16</time>
   <time name="orth">    0.06    0.06</time>
   <time name="total">    1.47    2.23</time>
   <energy>
    <i name="e_fr_energy">   -228.02818211 </i>
    <i name="e_wo_entrp">   -227.98478534 </i>
    <i name="e_0_energy">   -228.01371652 </i>
   </energy>
  </scstep>
  <scstep>
   <time name="diag">    0.22    0.24</time>
   <time name="diis">    0.71    1.10</time>
   <time name="orth">    0.08    0.09</time>
   <time name="total">    1.37    1.93</time>
   <energy>
    <i name="e_fr_energy">   -208.84382780 </i>
    <i name="e_wo_entrp">   -208.84509588 </i>
    <i name="e_0_energy">   -208.84425049 </i>
   </energy>
  </scstep>
  <scstep>
   <time name="diag">    0.44    0.66</time>
   <time name="diis">    0.76    1.11</time>
   <time name="orth">    0.03    0.05</time>
   <time name="total">    1.36    2.02</time>
   <energy>
    <i name="e_fr_energy">   -204.71847231 </i>
    <i name="e_wo_entrp">   -204.59882999 </i>
    <i name="e_0_energy">   -204.67859154 </i>
   </energy>
  </scstep>
  <scstep>
   <time name="diag">    0.19    0.22</time>
   <time name="diis">    0.72    1.19</time>
   <time name="orth">    0.17    0.19</time>
   <time name="total">    1.26    1.85</time>
   <energy>
    <i name="e_fr_energy">   -198.16924796 </i>
    <i name="e_wo_entrp">   -198.21907444 </i>
    <i name="e_0_energy">   -198.18585679 </i>
   </energy>
  </scstep>
  <scstep>
   <time name="diag">    0.22    0.26</time>
   <time name="diis">    0.91    1.30</time>
   <time name="orth">    0.05    0.10</time>
   <time name="total">    1.45    2.18</time>
   <energy>
    <i name="e_fr_energy">   -194.99588544 </i>
    <i name="e_wo_entrp">   -194.96758671 </i>
    <i name="e_0_energy">   -194.98645253 </i>
   </energy>
  </scstep>
  <scstep>
   <time name="diag">    0.35    0.58</time>
   <time name="diis">    0.88    1.10</time>
   <time name="orth">    0.03    0.07</time>
   <time name="total">    1.69    2.30</time>
   <energy>
    <i name="e_fr_energy">   -193.86443767 </i>
    <i name="e_wo_entrp">   -193.87001351 </i>
    <i name="e_0_energy">   -193.86629628 </i>
   </energy>
  </scstep>
  <scstep>
   <time name="diag">    0.22    0.35</time>
   <time name="diis">    0.95    1.19</time>
   <time name="orth">    0.14    0.22</time>
   <time name="total">    1.58    2.08</time>
   <energy>
    <i name="e_fr_energy">   -192.70518074 </i>
    <i name="e_wo_entrp">   -192.67163086 </i>
    <i name="e_0_energy">   -192.69399745 </i>
   </energy>
  </scstep>
  <scstep>
   <time name="diag">    0.19    0.37</time>
   <time name="diis">    0.80    1.24</time>
   <time name="orth">    0.08    0.08</time>
   <time name="total">    1.41    2.12</time>
   <energy>
    <i name="e_fr_energy">   -191.58376158 </i>
    <i name="e_wo_entrp">   -191.66618696 </i>
    <i name="e_0_energy">   -191.61123670 </i>
   </energy>
  </scstep>
  <scstep>
   <time name="diag">    0.17    0.31</time>
   <time name="diis">    0.83    1.21</time>
   <time name="orth">    0.19    0.34</time>
   <time name="total">    1.43    2.26</time>
   <energy>
    <i name="e_fr_energy">   -191.01064400 </i>
    <i name="e_wo_entrp">   -191.01202000 </i>
    <i name="e_0_energy">   -191.01110267 </i>
   </energy>
  </scstep>
  <scstep>
   <time name="diag">    0.20    0.29</time>
   <time name="diis">    0.79    1.31</time>
   <time name="orth">    0.06    0.06</time>
   <time name="total">    1.23    1.85</time>
   <energy>
    <i name="e_fr_energy">   -190.11043234 </i>
    <i name="e_wo_entrp">   -190.14899213 </i>
    <i name="e_0_energy">   -190.12328560 </i>
   </energy>
  </scstep>
  <scstep>
   <time name="diag">    0.18    0.28</time>
   <time name="diis">    0.97    1.22</time>
   <time name="orth">    0.11    0.14</time>
   <time name="total">    1.53    1.93</time>
   <energy>
    <i name="e_fr_energy">   -189.82098607 </i>
    <i name="e_wo_entrp">   -189.87584956 </i>
    <i name="e_0_energy">   -189.83927390 </i>
   </energy>
  </scstep>
  <scstep>
   <time name="diag">    0.52    0.83</time>
   <time name="diis">    0.79    1.20</time>
   <time name="orth">    0.06    0.06</time>
   <time name="total">    1.56    2.34</time>
   <energy>
    <i name="e_fr_energy">   -189.44808633 </i>
    <i name="e_wo_entrp">   -189.45796924 </i>
    <i name="e_0_energy">   -189.45138063 </i>
   </energy>
  </scstep>
  <scstep>
   <time name="diag">    0.22    0.29</time>
   <time name="diis">    0.81    1.09</time>
   <time name="orth">    0.10    0.13</time>
   <time name="total">    1.53    1.99</time>
   <energy>
    <i name="e_fr_energy">   -189.40577058 </i>
    <i name="e_wo_entrp">   -189.41198245 </i>
    <i name="e_0_energy">   -189.40784121 </i>
   </energy>
  </scstep>
  <scstep>
   <time name="diag">    0.28    0.41</time>
   <time name="diis">    1.19    1.56</time>
   <time name="orth">    0.08    0.11</time>
   <time name="total">    1.92    2.61</time>
   <energy>
    <i name="e_fr_energy">   -189.39137812 </i>
    <i name="e_wo_entrp">   -189.40390952 </i>
    <i name="e_0_energy">   -189.39555525 </i>
   </energy>
  </scstep>
  <scstep>
   <time name="diag">    0.35    0.51</time>
   <time name="diis">    0.86    1.33</time>
   <time name="orth">    0.13    0.17</time>
   <time name="total">    1.82    2.65</time>
   <energy>
    <i name="e_fr_energy">   -189.29609431 </i>
    <i name="e_wo_entrp">   -189.29009421 </i>
    <i name="e_0_energy">   -189.29409428 </i>
   </energy>
  </scstep>
  <scstep>
   <time name="diag">    0.12    0.24</time>
   <time name="diis">    0.96    1.39</time>
   <time name="orth">    0.03    0.06</time>
   <time name="total">    1.69    2.54</time>
   <energy>
    <i name="e_fr_energy">   -189.27959602 </i>
    <i name="e_wo_entrp">   -189.26853140 </i>
    <i name="e_0_energy">   -189.27590781 </i>
   </energy>
  </scstep>
  <scstep>
   <time name="diag">    0.31    0.40</time>
   <time name="diis">    0.98    1.46</time>
   <time name="orth">    0.05    0.08</time>
   <time name="total">    1.88    2.69</time>
   <energy>
    <i name="e_fr_energy">   -189.25005575 </i>
    <i name="e_wo_entrp">   -189.25092242 </i>
    <i name="e_0_energy">   -189.25034464 </i>
   </energy>
  </scstep>
  <scstep>
   <time name="diag">    0.38    0.53</time>
   <time name="diis">    0.91    1.63</time>
   <time name="orth">    0.12    0.13</time>
   <time name="total">    1.79    2.80</time>
   <energy>
    <i name="e_fr_energy">   -189.26385628 </i>
    <i name="e_wo_entrp">   -189.25407186 </i>
    <i name="e_0_energy">   -189.26059481 </i>
   </energy>
  </scstep>
  <scstep>
   <time name="diag">    0.22    0.37</time>
   <time name="diis">    1.13    1.38</time>
   <time name="orth">    0.23    0.37</time>
   <time name="total">    2.16    2.86</time>
   <energy>
    <i name="e_fr_energy">   -189.30496701 </i>
    <i name="e_wo_entrp">   -189.30075337 </i>
    <i name="e_0_energy">   -189.30356246 </i>
   </energy>
  </scstep>
  <scstep>
   <time name="diag">    0.18    0.23</time>
   <time name="diis">    1.10    1.52</time>
   <time name="orth">    0.06    0.07</time>
   <time name="total">    1.78    2.52</time>
   <energy>
    <i name="e_fr_energy">   -189.28215653 </i>
    <i name="e_wo_entrp">   -189.28046855 </i>
    <i name="e_0_energy">   -189.28159387 </i>
   </energy>
  </scstep>
  <scstep>
   <time name="diag">    0.70    1.02</time>
   <time name="diis">    0.90    1.18</time>
   <time name="orth">    0.08    0.08</time>
   <time name="total">    2.05    2.87</time>
   <energy>
    <i name="e_fr_energy">   -189.25711243 </i>
    <i name="e_wo_entrp">   -189.26154367 </i>
    <i name="e_0_energy">   -189.25858951 </i>
   </energy>
  </scstep>
  <scstep>
   <time name="diag">    0.29    0.41</time>
   <time name="diis">    0.81    1.17</time>
   <time name="orth">    0.06    0.06</time>
   <time name="total">    1.43    1.96</time>
   <energy>
    <i name="e_fr_energy">   -189.24681546 </i>
    <i name="e_wo_entrp">   -189.24753615 </i>
    <i name="e_0_energy">   -189.24705569 </i>
   </energy>
  </scstep>
  <scstep>
   <time name="diag">    0.26    0.34</time>
   <time name="diis">    0.68    0.96</time>
   <time name="orth">    0.06    0.06</time>
   <time name="total">    1.34    1.91</time>
   <energy>
    <i name="e_fr_energy">   -189.24605151 </i>
    <i name="e_wo_entrp">   -189.25199519 </i>
    <i name="e_0_energy">   -189.24803274 </i>
   </energy>
  </scstep>
  <scstep>
   <time name="diag">    0.35    0.57</time>
   <time name="diis">    0.68    1.11</time>
   <time name="orth">    0.13    0.14</time>
   <time name="total">    1.38    2.12</time>
   <energy>
    <i name="e_fr_energy">   -189.24424635 </i>
    <i name="e_wo_entrp">   -189.25248023 </i>
    <i name="e_0_energy">   -189.24699098 </i>
   </energy>
  </scstep>
  <scstep>
   <time name="diag">    0.32    0.42</time>
   <time name="diis">    0.68    0.90</time>
   <time name="orth">    0.17    0.25</time>
   <time name="total">    1.37    1.83</time>
   <energy>
    <i name="alphaZ">    943.57652748 </i>
    <i name="ewald"> -15990.27763201 </i>
    <i name="hartreedc">  -6854.03005035 </i>
    <i name="XCdc">    918.47518975 </i>
    <i name="pawpsdc">  22428.67623766 </i>
    <i name="pawaedc"> -22639.14626266 </i>
    <i name="eentropy">      0.01211168 </i>
    <i name="bandstr">  -1500.62865178 </i>
    <i name="atom">  22504.09828397 </i>
    <i name="e_fr_energy">   -189.24424627 </i>
    <i name="e_wo_entrp">   -189.25635795 </i>
    <i name="e_0_energy">   -189.24828350 </i>
   </energy>
  </scstep>
  <structure>
   <crystal>
    <varray name="basis" >
     <v>       3.25262800       0.00000000       0.00000000 </v>
     <v>       0.00000000      20.54938400       0.00000000 </v>
     <v>       0.00000000       0.00000000       6.79221100 </v>
    </varray>
    <i name="volume">    453.98799923 </i>
    <varray name="rec_basis" >
     <v>       0.30744370       0.00000000       0.00000000 </v>
     <v>       0.00000000       0.04866326       0.00000000 </v>
     <v>       0.00000000       0.00000000       0.14722746 </v>
    </varray>
   </crystal>
   <varray name="positions" >
    <v>       0.00000000       0.16671900       0.50139100 </v>
    <v>       0.00000000       0.83328100       0.50139100 </v>
    <v>       0.00000000       0.66671900       0.00139100 </v>
    <v>       0.00000000       0.33328100       0.00139100 </v>
    <v>       0.50000000       0.16602100       0.00000400 </v>
    <v>       0.50000000       0.83397900       0.00000400 </v>
    <v>       0.49969400       0.66602100       0.50000400 </v>
    <v>       0.50000000       0.33397900       0.50000400 </v>
    <v>       0.00000000       0.00000000       0.01216200 </v>
    <v>       0.00000000       0.50000000       0.51216200 </v>
    <v>       0.50000000       0.00000000       0.47240000 </v>
    <v>       0.50000000       0.50000000       0.97240000 </v>
    <v>       0.00000000       0.00000000       0.31436200 </v>
    <v>       0.00530800       0.50000000       0.81436200 </v>
    <v>       0.00000000       0.16816900       0.20329900 </v>
    <v>       0.00000000       0.83183100       0.20329900 </v>
    <v>       0.00000000       0.66945800       0.70329900 </v>
    <v>       0.00000000       0.33183100       0.70329900 </v>
    <v>       0.00000000       0.16838200       0.79934600 </v>
    <v>       0.99877100       0.83161800       0.79934600 </v>
    <v>       0.00000000       0.66838200       0.29934600 </v>
    <v>       0.00000000       0.33161800       0.29934600 </v>
    <v>       0.50000000       0.06837200       0.99633700 </v>
    <v>       0.50000000       0.93162800       0.99633700 </v>
    <v>       0.49502600       0.56837200       0.49633700 </v>
    <v>       0.50000000       0.43162800       0.49633700 </v>
    <v>       0.50000000       0.09818400       0.51103000 </v>
    <v>       0.50000000       0.90181600       0.50567900 </v>
    <v>       0.50000000       0.59818400       0.00567900 </v>
    <v>       0.50586600       0.40181600       0.00567900 </v>
    <v>       0.50000000       0.23406000       0.50924000 </v>
    <v>       0.50000000       0.76594000       0.50152500 </v>
    <v>       0.50000000       0.73406000       0.00152500 </v>
    <v>       0.50000000       0.26594000       0.00152500 </v>
    <v>       0.00000000       0.00000000       0.69474100 </v>
    <v>       0.00000000       0.50534800       0.19474100 </v>
   </varray>
  </structure>
  <varray name="forces" >
   <v>       0.00089680      -0.08175036       0.28635843 </v>
   <v>      -0.01845170       0.07929112       0.07482235 </v>
   <v>       0.00443903      -0.07024948       0.08732637 </v>
   <v>       0.05145910       0.05789274       0.05047341 </v>
   <v>       0.00343375       0.27371585       0.02289326 </v>
   <v>      -0.01595242      -0.28331448       0.07096678 </v>
   <v>      -0.03295003       0.33998046       0.06245810 </v>
   <v>      -0.00096287      -0.28387964       0.15798759 </v>
   <v>      -0.00014818       0.00188739       0.97558123 </v>
   <v>       0.03243266       0.20308603       0.94414530 </v>
   <v>      -0.00027476      -0.00218591       0.14307989 </v>
   <v>       0.16038433       0.42516381       0.06064261 </v>
   <v>       0.00023578       0.01857255      -1.10977310 </v>
   <v>      -0.14717575      -0.25801140      -1.02445161 </v>
   <v>       0.00013837      -0.19081505      -0.19364974 </v>
   <v>       0.01116074       0.19677409      -0.20024312 </v>
   <v>      -0.00598834      -0.28900082      -0.20078593 </v>
   <v>       0.00284315       0.20670272      -0.18211574 </v>
   <v>       0.00016922      -0.19222564       0.20564725 </v>
   <v>       0.02412100       0.19280901       0.14373517 </v>
   <v>      -0.00695875      -0.21731753       0.14942937 </v>
   <v>       0.00324683       0.18635862       0.11778791 </v>
   <v>      -0.00132018      -0.49795967       0.21901219 </v>
   <v>       0.00014230       0.51310842       0.21183066 </v>
   <v>       0.07357543      -0.48760587       0.24340044 </v>
   <v>       0.01892415       0.49862993       0.17048696 </v>
   <v>      -0.00028900       0.78644312      -0.33769753 </v>
   <v>       0.00042587      -0.80301301      -0.19071882 </v>
   <v>      -0.00368428       0.87728651      -0.23053363 </v>
   <v>      -0.08473165      -0.81704161      -0.15662226 </v>
   <v>       0.00104950      -0.39980393      -0.21610133 </v>
   <v>       0.00811947       0.41614245      -0.02952175 </v>
   <v>      -0.00200522      -0.40433929      -0.01874421 </v>
   <v>      -0.02051700       0.39283668      -0.01141856 </v>
   <v>       0.00024116      -0.01152125      -0.15278165 </v>
   <v>      -0.05602850      -0.37664656      -0.14290630 </v>
  </varray>
  <varray name="stress" >
   <v>    -248.71457706      -0.06796145      -0.24969420 </v>
   <v>      -0.06796264    -261.06191426       0.00825268 </v>
   <v>      -0.24969219       0.00825511    -288.01974901 </v>
  </varray>
  <energy>
   <i name="e_fr_energy">   -189.24424627 </i>
   <i name="e_wo_entrp">   -189.24828350 </i>
   <i name="e_0_energy">      0.01211168 </i>
  </energy>
  <time name="totalsc">   73.26  104.59</time>
  <eigenvalues>
   <array>
    <dimension dim="1">band</dimension>
    <dimension dim="2">kpoint</dimension>
    <dimension dim="3">spin</dimension>
    <field>eigene</field>
    <field>occ</field>
    <set>
     <set comment="spin 1">
      <set comment="kpoint 1">
       <r>  -22.7243    1.0000 </r>
       <r>  -22.7109    1.0000 </r>
       <r>  -22.5800    1.0000 </r>
       <r>  -22.5546    1.0000 </r>
       <r>  -22.3764    1.0000 </r>
       <r>  -22.3673    1.0000 </r>
       <r>  -22.3528    1.0000 </r>
       <r>  -22.3101    1.0000 </r>
       <r>  -22.2695    1.0000 </r>
       <r>  -22.2687    1.0000 </r>
       <r>  -22.2539    1.0000 </r>
       <r>  -22.2471    1.0000 </r>
       <r>  -22.2279    1.0000 </r>
       <r>  -22.2003    1.0000 </r>
       <r>  -22.1788    1.0000 </r>
       <r>  -22.1643    1.0000 </r>
       <r>  -22.1575    1.0000 </r>
       <r>  -22.1399    1.0000 </r>
       <r>  -22.1170    1.0000 </r>
       <r>  -22.0930    1.0000 </r>
       <r>  -20.9366    1.0000 </r>
       <r>  -20.9247    1.0000 </r>
       <r>  -16.5584    1.0000 </r>
       <r>  -16.5494    1.0000 </r>
       <r>   -6.1745    1.0000 </r>
       <r>   -6.0768    1.0000 </r>
       <r>   -5.9130    1.0000 </r>
       <r>   -5.8342    1.0000 </r>
       <r>   -5.6551    1.0000 </r>
       <r>   -5.4797    1.0000 </r>
       <r>   -5.4089    1.0000 </r>
       <r>   -5.3672    1.0000 </r>
       <r>   -5.2472    1.0000 </r>
       <r>   -5.0745    1.0000 </r>
       <r>   -4.6087    1.0000 </r>
       <r>   -4.5781    1.0000 </r>
       <r>   -4.5162    1.0000 </r>
       <r>   -4.4804    1.0000 </r>
       <r>   -4.4171    1.0000 </r>
       <r>   -4.3459    1.0000 </r>
       <r>   -4.3257    1.0000 </r>
       <r>   -4.3224    1.0000 </r>
       <r>   -4.3213    1.0000 </r>
       <r>   -4.3060    1.0000 </r>
       <r>   -4.3042    1.0000 </r>
       <r>   -4.2756    1.0000 </r>
       <r>   -4.2553    1.0000 </r>
       <r>   -4.2459    1.0000 </r>
       <r>   -4.2137    1.0000 </r>
       <r>   -4.1945    1.0000 </r>
       <r>   -4.1774    1.0000 </r>
       <r>   -4.1626    1.0000 </r>
       <r>   -4.1620    1.0000 </r>
       <r>   -4.1365    1.0000 </r>
       <r>   -4.1350    1.0000 </r>
       <r>   -4.1267    1.0000 </r>
       <r>   -4.0804    1.0000 </r>
       <r>   -4.0728    1.0000 </r>
       <r>   -4.0449    1.0000 </r>
       <r>   -4.0115    1.0000 </r>
       <r>   -3.9449    1.0000 </r>
       <r>   -3.8690    1.0000 </r>
       <r>   -3.8644    1.0000 </r>
       <r>   -3.7028    1.0000 </r>
       <r>   -3.6070    1.0000 </r>
       <r>   -3.6039    1.0000 </r>
       <r>   -3.5900    1.0000 </r>
       <r>   -3.5287    1.0000 </r>
       <r>   -3.5005    1.0000 </r>
       <r>   -3.4917    1.0000 </r>
       <r>   -3.4716    1.0000 </r>
       <r>   -3.3802    1.0000 </r>
       <r>   -3.2724    1.0000 </r>
       <r>   -3.2552    1.0000 </r>
       <r>   -3.2371    1.0000 </r>
       <r>   -3.1760    1.0000 </r>
       <r>   -3.1736    1.0000 </r>
       <r>   -3.1722    1.0000 </r>
       <r>   -3.1576    1.0000 </r>
       <r>   -3.1177    1.0000 </r>
       <r>   -3.0724    1.0000 </r>
       <r>   -3.0277    1.0000 </r>
       <r>   -3.0201    1.0000 </r>
       <r>   -2.9579    1.0000 </r>
       <r>   -2.8564    1.0000 </r>
       <r>   -2.8194    1.0000 </r>
       <r>   -2.6501    1.0000 </r>
       <r>   -2.5894    1.0000 </r>
       <r>   -2.0303    1.0000 </r>
       <r>   -2.0182    1.0000 </r>
       <r>   -1.9931    1.0000 </r>
       <r>   -1.9540    1.0000 </r>
       <r>   -1.8126    1.0000 </r>
       <r>   -1.8084    1.0000 </r>
       <r>   -1.2897    1.0000 </r>
       <r>   -1.2766    1.0000 </r>
       <r>    0.8222    1.0000 </r>
       <r>    0.8624    1.0000 </r>
       <r>    0.9212    1.0000 </r>
       <r>    0.9331    1.0000 </r>
       <r>    0.9546    1.0000 </r>
       <r>    0.9658    1.0000 </r>
       <r>    1.0057    1.0000 </r>
       <r>    1.0091    1.0000 </r>
       <r>    1.0249    1.0000 </r>
       <r>    1.0541    1.0000 </r>
       <r>    1.0936    1.0000 </r>
       <r>    1.1240    1.0000 </r>
       <r>    1.1707    1.0000 </r>
       <r>    1.1764    1.0000 </r>
       <r>    1.1869    1.0000 </r>
       <r>    1.2021    1.0000 </r>
       <r>    1.2373    1.0001 </r>
       <r>    1.2564    1.0001 </r>
       <r>    1.2628    1.0001 </r>
       <r>    1.2685    1.0001 </r>
       <r>    1.2702    1.0001 </r>
       <r>    1.3084    1.0004 </r>
       <r>    1.3135    1.0004 </r>
       <r>    1.3269    1.0006 </r>
       <r>    1.3559    1.0012 </r>
       <r>    1.3757    1.0018 </r>
       <r>    1.3938    1.0026 </r>
       <r>    1.4996    1.0154 </r>
       <r>    1.5474    1.0260 </r>
       <r>    1.6093    1.0355 </r>
       <r>    1.6870    0.9994 </r>
       <r>    1.7057    0.9748 </r>
       <r>    1.7615    0.8512 </r>
       <r>    1.7943    0.7436 </r>
       <r>    1.8326    0.5936 </r>
       <r>    1.8461    0.5371 </r>
       <r>    1.9068    0.2880 </r>
       <r>    1.9695    0.0924 </r>
       <r>    1.9807    0.0673 </r>
       <r>    2.0613   -0.0282 </r>
       <r>    2.0956   -0.0354 </r>
       <r>    2.1172   -0.0344 </r>
       <r>    2.1234   -0.0336 </r>
       <r>    2.1459   -0.0296 </r>
       <r>    2.1711   -0.0239 </r>
       <r>    2.1808   -0.0217 </r>
       <r>    2.2459   -0.0092 </r>
       <r>    2.2488   -0.0088 </r>
       <r>    2.2788   -0.0053 </r>
       <r>    2.3910   -0.0005 </r>
       <r>    2.3982   -0.0004 </r>
       <r>    2.4063   -0.0003 </r>
       <r>    2.4122   -0.0003 </r>
       <r>    2.4546   -0.0001 </r>
       <r>    2.5718   -0.0000 </r>
       <r>    2.9256   -0.0000 </r>
       <r>    3.0993   -0.0000 </r>
       <r>    3.2243   -0.0000 </r>
       <r>    3.2849   -0.0000 </r>
       <r>    3.3181   -0.0000 </r>
       <r>    4.1177   -0.0000 </r>
       <r>    4.6120   -0.0000 </r>
       <r>    4.9254   -0.0000 </r>
       <r>    6.2320   -0.0000 </r>
      </set>
     </set>
    </set>
   </array>
  </eigenvalues>
  <separator name="orbital magnetization" >
   <v name="MAGDIPOLOUT">      0.00000000      0.00000000      0.00000000</v>
  </separator>
  <dos>
   <i name="efermi">      1.85482692 </i>
   <total>
    <array>
     <dimension dim="1">gridpoints</dimension>
     <dimension dim="2">spin</dimension>
     <field>energy</field>
     <field>total</field>
     <field>integrated</field>
     <set>
      <set comment="spin 1">
       <r>   -24.7243     0.0000     0.0000 </r>
       <r>   -24.6145     0.0000     0.0000 </r>
       <r>   -24.5046     0.0000     0.0000 </r>
       <r>   -24.3948    -0.0000    -0.0000 </r>
       <r>   -24.2849    -0.0000    -0.0000 </r>
       <r>   -24.1751    -0.0000    -0.0000 </r>
       <r>   -24.0652    -0.0000    -0.0000 </r>
       <r>   -23.9554    -0.0000    -0.0000 </r>
       <r>   -23.8455    -0.0000    -0.0000 </r>
       <r>   -23.7356    -0.0000    -0.0000 </r>
       <r>   -23.6258    -0.0000    -0.0000 </r>
       <r>   -23.5159    -0.0000    -0.0000 </r>
       <r>   -23.4061    -0.0002    -0.0000 </r>
       <r>   -23.2962    -0.0060    -0.0007 </r>
       <r>   -23.1864    -0.0789    -0.0094 </r>
       <r>   -23.0765    -0.4850    -0.0626 </r>
       <r>   -22.9667    -1.0172    -0.1744 </r>
       <r>   -22.8568     1.9430     0.0391 </r>
       <r>   -22.7470    12.2350     1.3831 </r>
       <r>   -22.6371    21.7701     3.7747 </r>
       <r>   -22.5272    22.3323     6.2280 </r>
       <r>   -22.4174    30.7008     9.6006 </r>
       <r>   -22.3075    65.2483    16.7684 </r>
       <r>   -22.1977    97.5356    27.4831 </r>
       <r>   -22.0878    82.6609    36.5638 </r>
       <r>   -21.9780    34.1169    40.3117 </r>
       <r>   -21.8681     1.9886    40.5301 </r>
       <r>   -21.7583    -3.4198    40.1544 </r>
       <r>   -21.6484    -1.2158    40.0209 </r>
       <r>   -21.5386    -0.1794    40.0012 </r>
       <r>   -21.4287    -0.0544    39.9952 </r>
       <r>   -21.3188    -0.3077    39.9614 </r>
       <r>   -21.2090    -0.8141    39.8719 </r>
       <r>   -21.0991     1.1743    40.0010 </r>
       <r>   -20.9893     9.5903    41.0545 </r>
       <r>   -20.8794    16.2074    42.8349 </r>
       <r>   -20.7696    10.2783    43.9641 </r>
       <r>   -20.6597     1.5369    44.1329 </r>
       <r>   -20.5499    -0.8165    44.0432 </r>
       <r>   -20.4400    -0.3410    44.0057 </r>
       <r>   -20.3302    -0.0488    44.0004 </r>
       <r>   -20.2203    -0.0033    44.0000 </r>
       <r>   -20.1105    -0.0001    44.0000 </r>
       <r>   -20.0006    -0.0000    44.0000 </r>
       <r>   -19.8907    -0.0000    44.0000 </r>
       <r>   -19.7809    -0.0000    44.0000 </r>
       <r>   -19.6710    -0.0000    44.0000 </r>
       <r>   -19.5612     0.0000    44.0000 </r>
       <r>   -19.4513     0.0000    44.0000 </r>
       <r>   -19.3415     0.0000    44.0000 </r>
       <r>   -19.2316     0.0000    44.0000 </r>
       <r>   -19.1218     0.0000    44.0000 </r>
       <r>   -19.0119     0.0000    44.0000 </r>
       <r>   -18.9021     0.0000    44.0000 </r>
       <r>   -18.7922     0.0000    44.0000 </r>
       <r>   -18.6823     0.0000    44.0000 </r>
       <r>   -18.5725     0.0000    44.0000 </r>
       <r>   -18.4626     0.0000    44.0000 </r>
       <r>   -18.3528     0.0000    44.0000 </r>
       <r>   -18.2429    -0.0000    44.0000 </r>
       <r>   -18.1331    -0.0000    44.0000 </r>
       <r>   -18.0232    -0.0000    44.0000 </r>
       <r>   -17.9134    -0.0000    44.0000 </r>
       <r>   -17.8035    -0.0000    44.0000 </r>
       <r>   -17.6937    -0.0000    44.0000 </r>
       <r>   -17.5838    -0.0000    44.0000 </r>
       <r>   -17.4739    -0.0000    44.0000 </r>
       <r>   -17.3641    -0.0000    44.0000 </r>
       <r>   -17.2542    -0.0002    44.0000 </r>
       <r>   -17.1444    -0.0043    43.9995 </r>
       <r>   -17.0345    -0.0601    43.9929 </r>
       <r>   -16.9247    -0.3894    43.9501 </r>
       <r>   -16.8148    -0.8032    43.8619 </r>
       <r>   -16.7050     2.0782    44.0902 </r>
       <r>   -16.5951    11.1906    45.3195 </r>
       <r>   -16.4853    16.1064    47.0889 </r>
       <r>   -16.3754     8.6542    48.0396 </r>
       <r>   -16.2656     0.7366    48.1205 </r>
       <r>   -16.1557    -0.7968    48.0330 </r>
       <r>   -16.0458    -0.2648    48.0039 </r>
       <r>   -15.9360    -0.0332    48.0002 </r>
       <r>   -15.8261    -0.0020    48.0000 </r>
       <r>   -15.7163    -0.0001    48.0000 </r>
       <r>   -15.6064    -0.0000    48.0000 </r>
       <r>   -15.4966    -0.0000    48.0000 </r>
       <r>   -15.3867    -0.0000    48.0000 </r>
       <r>   -15.2769    -0.0000    48.0000 </r>
       <r>   -15.1670     0.0000    48.0000 </r>
       <r>   -15.0572     0.0000    48.0000 </r>
       <r>   -14.9473     0.0000    48.0000 </r>
       <r>   -14.8374     0.0000    48.0000 </r>
       <r>   -14.7276     0.0000    48.0000 </r>
       <r>   -14.6177     0.0000    48.0000 </r>
       <r>   -14.5079     0.0000    48.0000 </r>
       <r>   -14.3980     0.0000    48.0000 </r>
       <r>   -14.2882     0.0000    48.0000 </r>
       <r>   -14.1783     0.0000    48.0000 </r>
       <r>   -14.0685     0.0000    48.0000 </r>
       <r>   -13.9586     0.0000    48.0000 </r>
       <r>   -13.8488     0.0000    48.0000 </r>
       <r>   -13.7389     0.0000    48.0000 </r>
       <r>   -13.6290     0.0000    48.0000 </r>
       <r>   -13.5192     0.0000    48.0000 </r>
       <r>   -13.4093     0.0000    48.0000 </r>
       <r>   -13.2995     0.0000    48.0000 </r>
       <r>   -13.1896     0.0000    48.0000 </r>
       <r>   -13.0798     0.0000    48.0000 </r>
       <r>   -12.9699     0.0000    48.0000 </r>
       <r>   -12.8601     0.0000    48.0000 </r>
       <r>   -12.7502     0.0000    48.0000 </r>
       <r>   -12.6404     0.0000    48.0000 </r>
       <r>   -12.5305     0.0000    48.0000 </r>
       <r>   -12.4207     0.0000    48.0000 </r>
       <r>   -12.3108     0.0000    48.0000 </r>
       <r>   -12.2009     0.0000    48.0000 </r>
       <r>   -12.0911     0.0000    48.0000 </r>
       <r>   -11.9812     0.0000    48.0000 </r>
       <r>   -11.8714     0.0000    48.0000 </r>
       <r>   -11.7615     0.0000    48.0000 </r>
       <r>   -11.6517     0.0000    48.0000 </r>
       <r>   -11.5418     0.0000    48.0000 </r>
       <r>   -11.4320     0.0000    48.0000 </r>
       <r>   -11.3221     0.0000    48.0000 </r>
       <r>   -11.2123     0.0000    48.0000 </r>
       <r>   -11.1024     0.0000    48.0000 </r>
       <r>   -10.9925     0.0000    48.0000 </r>
       <r>   -10.8827     0.0000    48.0000 </r>
       <r>   -10.7728     0.0000    48.0000 </r>
       <r>   -10.6630     0.0000    48.0000 </r>
       <r>   -10.5531     0.0000    48.0000 </r>
       <r>   -10.4433     0.0000    48.0000 </r>
       <r>   -10.3334     0.0000    48.0000 </r>
       <r>   -10.2236     0.0000    48.0000 </r>
       <r>   -10.1137     0.0000    48.0000 </r>
       <r>   -10.0039     0.0000    48.0000 </r>
       <r>    -9.8940     0.0000    48.0000 </r>
       <r>    -9.7841     0.0000    48.0000 </r>
       <r>    -9.6743     0.0000    48.0000 </r>
       <r>    -9.5644     0.0000    48.0000 </r>
       <r>    -9.4546     0.0000    48.0000 </r>
       <r>    -9.3447     0.0000    48.0000 </r>
       <r>    -9.2349     0.0000    48.0000 </r>
       <r>    -9.1250     0.0000    48.0000 </r>
       <r>    -9.0152     0.0000    48.0000 </r>
       <r>    -8.9053     0.0000    48.0000 </r>
       <r>    -8.7955     0.0000    48.0000 </r>
       <r>    -8.6856     0.0000    48.0000 </r>
       <r>    -8.5758     0.0000    48.0000 </r>
       <r>    -8.4659     0.0000    48.0000 </r>
       <r>    -8.3560     0.0000    48.0000 </r>
       <r>    -8.2462     0.0000    48.0000 </r>
       <r>    -8.1363     0.0000    48.0000 </r>
       <r>    -8.0265     0.0000    48.0000 </r>
       <r>    -7.9166     0.0000    48.0000 </r>
       <r>    -7.8068    -0.0000    48.0000 </r>
       <r>    -7.6969    -0.0000    48.0000 </r>
       <r>    -7.5871    -0.0000    48.0000 </r>
       <r>    -7.4772    -0.0000    48.0000 </r>
       <r>    -7.3674    -0.0000    48.0000 </r>
       <r>    -7.2575    -0.0000    48.0000 </r>
       <r>    -7.1476    -0.0000    48.0000 </r>
       <r>    -7.0378    -0.0000    48.0000 </r>
       <r>    -6.9279    -0.0000    48.0000 </r>
       <r>    -6.8181    -0.0005    47.9999 </r>
       <r>    -6.7082    -0.0098    47.9989 </r>
       <r>    -6.5984    -0.0997    47.9879 </r>
       <r>    -6.4885    -0.4585    47.9375 </r>
       <r>    -6.3787    -0.4732    47.8856 </r>
       <r>    -6.2688     2.9648    48.2113 </r>
       <r>    -6.1590    10.6318    49.3792 </r>
       <r>    -6.0491    15.7435    51.1087 </r>
       <r>    -5.9392    16.5289    52.9245 </r>
       <r>    -5.8294    16.4137    54.7276 </r>
       <r>    -5.7195    13.5964    56.2212 </r>
       <r>    -5.6097    11.3364    57.4666 </r>
       <r>    -5.4998    15.6821    59.1893 </r>
       <r>    -5.3900    23.3020    61.7491 </r>
       <r>    -5.2801    23.1006    64.2868 </r>
       <r>    -5.1703    16.0987    66.0553 </r>
       <r>    -5.0604    10.7766    67.2392 </r>
       <r>    -4.9506     5.6294    67.8576 </r>
       <r>    -4.8407    -0.0350    67.8538 </r>
       <r>    -4.7309     0.8228    67.9441 </r>
       <r>    -4.6210    12.6806    69.3372 </r>
       <r>    -4.5111    29.8535    72.6167 </r>
       <r>    -4.4013    53.6248    78.5076 </r>
       <r>    -4.2914    91.8091    88.5932 </r>
       <r>    -4.1816   119.0396   101.6702 </r>
       <r>    -4.0717   106.0039   113.3152 </r>
       <r>    -3.9619    66.3473   120.6038 </r>
       <r>    -3.8520    33.4640   124.2799 </r>
       <r>    -3.7422    21.7360   126.6677 </r>
       <r>    -3.6323    33.0023   130.2932 </r>
       <r>    -3.5225    50.5160   135.8426 </r>
       <r>    -3.4126    48.3920   141.1586 </r>
       <r>    -3.3027    43.4639   145.9333 </r>
       <r>    -3.1929    59.1560   152.4319 </r>
       <r>    -3.0830    68.9547   160.0068 </r>
       <r>    -2.9732    53.7025   165.9063 </r>
       <r>    -2.8633    32.8947   169.5199 </r>
       <r>    -2.7535    21.2198   171.8510 </r>
       <r>    -2.6436    17.7600   173.8020 </r>
       <r>    -2.5338    14.4918   175.3940 </r>
       <r>    -2.4239     5.9065   176.0429 </r>
       <r>    -2.3141    -1.2195   175.9089 </r>
       <r>    -2.2042    -0.8330   175.8174 </r>
       <r>    -2.0943    11.7046   177.1032 </r>
       <r>    -1.9845    30.4894   180.4526 </r>
       <r>    -1.8746    35.2391   184.3237 </r>
       <r>    -1.7648    24.2610   186.9889 </r>
       <r>    -1.6549     9.4932   188.0318 </r>
       <r>    -1.5451    -0.0460   188.0267 </r>
       <r>    -1.4352     0.9792   188.1343 </r>
       <r>    -1.3254    10.7030   189.3101 </r>
       <r>    -1.2155    16.0544   191.0737 </r>
       <r>    -1.1057     8.7496   192.0349 </r>
       <r>    -0.9958     0.7862   192.1213 </r>
       <r>    -0.8860    -0.7979   192.0336 </r>
       <r>    -0.7761    -0.2695   192.0040 </r>
       <r>    -0.6662    -0.0342   192.0002 </r>
       <r>    -0.5564    -0.0021   192.0000 </r>
       <r>    -0.4465    -0.0001   192.0000 </r>
       <r>    -0.3367    -0.0000   192.0000 </r>
       <r>    -0.2268    -0.0000   192.0000 </r>
       <r>    -0.1170    -0.0000   192.0000 </r>
       <r>    -0.0071    -0.0000   192.0000 </r>
       <r>     0.1027    -0.0001   192.0000 </r>
       <r>     0.2126    -0.0018   191.9998 </r>
       <r>     0.3224    -0.0321   191.9963 </r>
       <r>     0.4323    -0.3036   191.9629 </r>
       <r>     0.5422    -1.3912   191.8101 </r>
       <r>     0.6520    -2.0503   191.5849 </r>
       <r>     0.7619     6.4416   192.2925 </r>
       <r>     0.8717    33.5611   195.9793 </r>
       <r>     0.9816    66.3391   203.2670 </r>
       <r>     1.0914    84.6733   212.5687 </r>
       <r>     1.2013    98.9708   223.4410 </r>
       <r>     1.3111   106.7048   235.1630 </r>
       <r>     1.4210    80.8852   244.0486 </r>
       <r>     1.5308    43.4308   248.8197 </r>
       <r>     1.6407    32.3867   252.3775 </r>
       <r>     1.7506    41.6690   256.9550 </r>
       <r>     1.8604    48.3911   262.2710 </r>
       <r>     1.9703    48.8916   267.6419 </r>
       <r>     2.0801    57.8166   273.9933 </r>
       <r>     2.1900    69.6102   281.6403 </r>
       <r>     2.2998    66.6681   288.9641 </r>
       <r>     2.4097    56.7001   295.1928 </r>
       <r>     2.5195    41.3590   299.7363 </r>
       <r>     2.6294    18.6332   301.7832 </r>
       <r>     2.7392     3.4224   302.1592 </r>
       <r>     2.8491     2.2455   302.4059 </r>
       <r>     2.9590     7.5967   303.2404 </r>
       <r>     3.0688    12.1621   304.5765 </r>
       <r>     3.1787    18.6073   306.6206 </r>
       <r>     3.2885    24.9532   309.3618 </r>
       <r>     3.3984    19.4979   311.5037 </r>
       <r>     3.5082     6.1669   312.1812 </r>
       <r>     3.6181    -0.6273   312.1123 </r>
       <r>     3.7279    -0.9808   312.0045 </r>
       <r>     3.8378    -0.5994   311.9387 </r>
       <r>     3.9476     0.5263   311.9965 </r>
       <r>     4.0575     4.7175   312.5147 </r>
       <r>     4.1673     8.0498   313.3990 </r>
       <r>     4.2772     4.9192   313.9394 </r>
       <r>     4.3871     0.5395   313.9987 </r>
       <r>     4.4969     1.7857   314.1949 </r>
       <r>     4.6068     6.5278   314.9120 </r>
       <r>     4.7166     7.2379   315.7071 </r>
       <r>     4.8265     5.6525   316.3280 </r>
       <r>     4.9363     7.3604   317.1366 </r>
       <r>     5.0462     6.5163   317.8525 </r>
       <r>     5.1560     1.9802   318.0700 </r>
       <r>     5.2659    -0.3012   318.0369 </r>
       <r>     5.3757    -0.2766   318.0065 </r>
       <r>     5.4856    -0.0545   318.0005 </r>
       <r>     5.5955    -0.0053   318.0000 </r>
       <r>     5.7053    -0.0110   317.9987 </r>
       <r>     5.8152    -0.0985   317.9879 </r>
       <r>     5.9250    -0.3649   317.9478 </r>
       <r>     6.0349     0.0461   317.9529 </r>
       <r>     6.1447     3.4683   318.3339 </r>
       <r>     6.2546     7.7939   319.1901 </r>
       <r>     6.3644     6.3903   319.8921 </r>
       <r>     6.4743     1.6273   320.0709 </r>
       <r>     6.5841    -0.3542   320.0320 </r>
       <r>     6.6940    -0.2437   320.0052 </r>
       <r>     6.8039    -0.0435   320.0004 </r>
       <r>     6.9137    -0.0035   320.0000 </r>
       <r>     7.0236    -0.0001   320.0000 </r>
       <r>     7.1334    -0.0000   320.0000 </r>
       <r>     7.2433    -0.0000   320.0000 </r>
       <r>     7.3531    -0.0000   320.0000 </r>
       <r>     7.4630    -0.0000   320.0000 </r>
       <r>     7.5728     0.0000   320.0000 </r>
       <r>     7.6827     0.0000   320.0000 </r>
       <r>     7.7925     0.0000   320.0000 </r>
       <r>     7.9024     0.0000   320.0000 </r>
       <r>     8.0122     0.0000   320.0000 </r>
       <r>     8.1221     0.0000   320.0000 </r>
       <r>     8.2320     0.0000   320.0000 </r>
      </set>
     </set>
    </array>
   </total>
  </dos>
 </calculation>
 <structure name="finalpos" >
  <crystal>
   <varray name="basis" >
    <v>       3.25262800       0.00000000       0.00000000 </v>
    <v>       0.00000000      20.54938400       0.00000000 </v>
    <v>       0.00000000       0.00000000       6.79221100 </v>
   </varray>
   <i name="volume">    453.98799923 </i>
   <varray name="rec_basis" >
    <v>       0.30744370       0.00000000       0.00000000 </v>
    <v>       0.00000000       0.04866326       0.00000000 </v>
    <v>       0.00000000       0.00000000       0.14722746 </v>
   </varray>
  </crystal>
  <varray name="positions" >
   <v>       0.00000000       0.16671900       0.50139100 </v>
   <v>       0.00000000       0.83328100       0.50139100 </v>
   <v>       0.00000000       0.66671900       0.00139100 </v>
   <v>       0.00000000       0.33328100       0.00139100 </v>
   <v>       0.50000000       0.16602100       0.00000400 </v>
   <v>       0.50000000       0.83397900       0.00000400 </v>
   <v>       0.49969400       0.66602100       0.50000400 </v>
   <v>       0.50000000       0.33397900       0.50000400 </v>
   <v>       0.00000000       0.00000000       0.01216200 </v>
   <v>       0.00000000       0.50000000       0.51216200 </v>
   <v>       0.50000000       0.00000000       0.47240000 </v>
   <v>       0.50000000       0.50000000       0.97240000 </v>
   <v>       0.00000000       0.00000000       0.31436200 </v>
   <v>       0.00530800       0.50000000       0.81436200 </v>
   <v>       0.00000000       0.16816900       0.20329900 </v>
   <v>       0.00000000       0.83183100       0.20329900 </v>
   <v>       0.00000000       0.66945800       0.70329900 </v>
   <v>       0.00000000       0.33183100       0.70329900 </v>
   <v>       0.00000000       0.16838200       0.79934600 </v>
   <v>       0.99877100       0.83161800       0.79934600 </v>
   <v>       0.00000000       0.66838200       0.29934600 </v>
   <v>       0.00000000       0.33161800       0.29934600 </v>
   <v>       0.50000000       0.06837200       0.99633700 </v>
   <v>       0.50000000       0.93162800       0.99633700 </v>
   <v>       0.49502600       0.56837200       0.49633700 </v>
   <v>       0.50000000       0.43162800       0.49633700 </v>
   <v>       0.50000000       0.09818400       0.51103000 </v>
   <v>       0.50000000       0.90181600       0.50567900 </v>
   <v>       0.50000000       0.59818400       0.00567900 </v>
   <v>       0.50586600       0.40181600       0.00567900 </v>
   <v>       0.50000000       0.23406000       0.50924000 </v>
   <v>       0.50000000       0.76594000       0.50152500 </v>
   <v>       0.50000000       0.73406000       0.00152500 </v>
   <v>       0.50000000       0.26594000       0.00152500 </v>
   <v>       0.00000000       0.00000000       0.69474100 </v>
   <v>       0.00000000       0.50534800       0.19474100 </v>
  </varray>
 </structure>
</modeling>
