<?xml version="1.0" encoding="ISO-8859-1"?>
<modeling>
 <generator>
  <i name="program" type="string">vasp </i>
  <i name="version" type="string">5.3.5  </i>
  <i name="subversion" type="string">31Mar14 (build Aug 29 2014 19:41:47) complex                          parallel </i>
  <i name="platform" type="string">LinuxIFC </i>
  <i name="date" type="string">2019 04 11 </i>
  <i name="time" type="string">16:22:05 </i>
 </generator>
 <incar>
  <i type="string" name="SYSTEM"> Fe6OF11_var_29</i>
  <i type="int" name="ISTART">     0</i>
  <i type="string" name="PREC">normal</i>
  <i type="string" name="ALGO"> VeryFast</i>
  <i type="int" name="ISPIN">     1</i>
  <i type="int" name="ICHARG">     2</i>
  <i type="int" name="NELM">   300</i>
  <i type="int" name="ISYM">     0</i>
  <i type="logical" name="LWAVE"> F  </i>
  <i type="int" name="NELM">   300</i>
 </incar>
 <kpoints>
  <generation param="Gamma">
   <v type="int" name="divisions">       1        1        1 </v>
   <v name="usershift">      0.00000000       0.00000000       0.00000000 </v>
   <v name="genvec1">      1.00000000       0.00000000       0.00000000 </v>
   <v name="genvec2">      0.00000000       1.00000000       0.00000000 </v>
   <v name="genvec3">      0.00000000       0.00000000       1.00000000 </v>
   <v name="shift">      0.00000000       0.00000000       0.00000000 </v>
  </generation>
  <varray name="kpointlist" >
   <v>       0.00000000       0.00000000       0.00000000 </v>
  </varray>
  <varray name="weights" >
   <v>       1.00000000 </v>
  </varray>
 </kpoints>
 <parameters>
  <separator name="general" >
   <i type="string" name="SYSTEM">Fe6OF11_var_29</i>
   <i type="logical" name="LCOMPAT"> F  </i>
  </separator>
  <separator name="electronic" >
   <i type="string" name="PREC">normal</i>
   <i name="ENMAX">    400.00000000</i>
   <i name="ENAUG">    613.61400000</i>
   <i name="EDIFF">      0.00010000</i>
   <i type="int" name="IALGO">    48</i>
   <i type="int" name="IWAVPR">    10</i>
   <i type="int" name="NBANDS">   160</i>
   <i name="NELECT">    262.00000000</i>
   <i type="int" name="TURBO">     0</i>
   <i type="int" name="IRESTART">     0</i>
   <i type="int" name="NREBOOT">     0</i>
   <i type="int" name="NMIN">     0</i>
   <i name="EREF">      0.00000000</i>
   <separator name="electronic smearing" >
    <i type="int" name="ISMEAR">     1</i>
    <i name="SIGMA">      0.20000000</i>
    <i name="KSPACING">      0.50000000</i>
    <i type="logical" name="KGAMMA"> T  </i>
   </separator>
   <separator name="electronic projectors" >
    <i type="logical" name="LREAL"> F  </i>
    <v name="ROPT">      0.00000000      0.00000000      0.00000000</v>
    <i type="int" name="LMAXPAW">  -100</i>
    <i type="int" name="LMAXMIX">     2</i>
    <i type="logical" name="NLSPLINE"> F  </i>
   </separator>
   <separator name="electronic startup" >
    <i type="int" name="ISTART">     0</i>
    <i type="int" name="ICHARG">     2</i>
    <i type="int" name="INIWAV">     1</i>
   </separator>
   <separator name="electronic spin" >
    <i type="int" name="ISPIN">     1</i>
    <i type="logical" name="LNONCOLLINEAR"> F  </i>
    <v name="MAGMOM">      1.00000000      1.00000000      1.00000000      1.00000000      1.00000000      1.00000000      1.00000000      1.00000000      1.00000000      1.00000000      1.00000000      1.00000000      1.00000000      1.00000000      1.00000000      1.00000000      1.00000000      1.00000000      1.00000000      1.00000000
      1.00000000      1.00000000      1.00000000      1.00000000      1.00000000      1.00000000      1.00000000      1.00000000      1.00000000      1.00000000      1.00000000      1.00000000      1.00000000      1.00000000      1.00000000      1.00000000</v>
    <i name="NUPDOWN">     -1.00000000</i>
    <i type="logical" name="LSORBIT"> F  </i>
    <v name="SAXIS">      0.00000000      0.00000000      1.00000000</v>
    <i type="logical" name="LSPIRAL"> F  </i>
    <v name="QSPIRAL">      0.00000000      0.00000000      0.00000000</v>
    <i type="logical" name="LZEROZ"> F  </i>
   </separator>
   <separator name="electronic exchange-correlation" >
    <i type="logical" name="LASPH"> F  </i>
    <i type="logical" name="LMETAGGA"> F  </i>
   </separator>
   <separator name="electronic convergence" >
    <i type="int" name="NELM">   300</i>
    <i type="int" name="NELMDL">   -12</i>
    <i type="int" name="NELMIN">     2</i>
    <i name="ENINI">    400.00000000</i>
    <separator name="electronic convergence detail" >
     <i type="logical" name="LDIAG"> T  </i>
     <i type="logical" name="LSUBROT"> F  </i>
     <i name="WEIMIN">      0.00000000</i>
     <i name="EBREAK">      0.00000016</i>
     <i name="DEPER">      0.30000000</i>
     <i type="int" name="NRMM">     4</i>
     <i name="TIME">      0.40000000</i>
    </separator>
   </separator>
   <separator name="electronic mixer" >
    <i name="AMIX">      0.40000000</i>
    <i name="BMIX">      1.00000000</i>
    <i name="AMIN">      0.10000000</i>
    <i name="AMIX_MAG">      1.60000000</i>
    <i name="BMIX_MAG">      1.00000000</i>
    <separator name="electronic mixer details" >
     <i type="int" name="IMIX">     4</i>
     <i type="int" name="MAXMIX">   -45</i>
     <i name="WC">    100.00000000</i>
     <i type="int" name="INIMIX">     1</i>
     <i type="int" name="MIXPRE">     1</i>
     <i type="int" name="MREMOVE">     5</i>
    </separator>
   </separator>
   <separator name="electronic dipolcorrection" >
    <i type="logical" name="LDIPOL"> F  </i>
    <i type="logical" name="LMONO"> F  </i>
    <i type="int" name="IDIPOL">     0</i>
    <i name="EPSILON">      1.00000000</i>
    <v name="DIPOL">   -100.00000000   -100.00000000   -100.00000000</v>
    <i name="EFIELD">      0.00000000</i>
   </separator>
  </separator>
  <separator name="grids" >
   <i type="int" name="NGX">    16</i>
   <i type="int" name="NGY">   108</i>
   <i type="int" name="NGZ">    36</i>
   <i type="int" name="NGXF">    32</i>
   <i type="int" name="NGYF">   216</i>
   <i type="int" name="NGZF">    72</i>
   <i type="logical" name="ADDGRID"> F  </i>
  </separator>
  <separator name="ionic" >
   <i type="int" name="NSW">     0</i>
   <i type="int" name="IBRION">    -1</i>
   <i type="int" name="ISIF">     2</i>
   <i name="PSTRESS">      0.00000000</i>
   <i name="EDIFFG">      0.00100000</i>
   <i type="int" name="NFREE">     0</i>
   <i name="POTIM">      0.50000000</i>
   <i name="SMASS">     -3.00000000</i>
   <i name="SCALEE">      1.00000000</i>
  </separator>
  <separator name="ionic md" >
   <i name="TEBEG">      0.00010000</i>
   <i name="TEEND">      0.00010000</i>
   <i type="int" name="NBLOCK">     1</i>
   <i type="int" name="KBLOCK">     1</i>
   <i type="int" name="NPACO">   256</i>
   <i name="APACO">     16.00000000</i>
  </separator>
  <separator name="symmetry" >
   <i type="int" name="ISYM">     0</i>
   <i name="SYMPREC">      0.00001000</i>
  </separator>
  <separator name="dos" >
   <i type="logical" name="LORBIT"> F  </i>
   <v name="RWIGS">     -1.00000000     -1.00000000     -1.00000000</v>
   <i type="int" name="NEDOS">   301</i>
   <i name="EMIN">     10.00000000</i>
   <i name="EMAX">    -10.00000000</i>
   <i name="EFERMI">      0.00000000</i>
  </separator>
  <separator name="writing" >
   <i type="int" name="NWRITE">     2</i>
   <i type="logical" name="LWAVE"> F  </i>
   <i type="logical" name="LCHARG"> T  </i>
   <i type="logical" name="LPARD"> F  </i>
   <i type="logical" name="LVTOT"> F  </i>
   <i type="logical" name="LVHAR"> F  </i>
   <i type="logical" name="LELF"> F  </i>
   <i type="logical" name="LOPTICS"> F  </i>
   <v name="STM">      0.00000000      0.00000000      0.00000000      0.00000000      0.00000000      0.00000000      0.00000000</v>
  </separator>
  <separator name="performance" >
   <i type="int" name="NPAR">     4</i>
   <i type="int" name="NSIM">     4</i>
   <i type="int" name="NBLK">    -1</i>
   <i type="logical" name="LPLANE"> T  </i>
   <i type="logical" name="LSCALAPACK"> T  </i>
   <i type="logical" name="LSCAAWARE"> F  </i>
   <i type="logical" name="LSCALU"> F  </i>
   <i type="logical" name="LASYNC"> F  </i>
   <i type="logical" name="LORBITALREAL"> F  </i>
  </separator>
  <separator name="miscellaneous" >
   <i type="int" name="IDIOT">     3</i>
   <i type="logical" name="LMUSIC"> F  </i>
   <v name="POMASS">     55.84700000     16.00000000     18.99800000</v>
   <v name="DARWINR">      0.00000000      0.00000000      0.00000000</v>
   <v name="DARWINV">      1.00000000      1.00000000      1.00000000</v>
   <i type="logical" name="LCORR"> T  </i>
  </separator>
  <i type="logical" name="GGA_COMPAT"> T  </i>
  <i type="logical" name="LBERRY"> F  </i>
  <i type="int" name="ICORELEVEL">     0</i>
  <i type="logical" name="LDAU"> F  </i>
  <i type="int" name="I_CONSTRAINED_M">     0</i>
  <separator name="electronic exchange-correlation" >
   <i type="string" name="GGA">--</i>
   <i type="int" name="VOSKOWN">     0</i>
   <i type="logical" name="LHFCALC"> F  </i>
   <i type="string" name="PRECFOCK"></i>
   <i type="logical" name="LSYMGRAD"> F  </i>
   <i type="logical" name="LHFONE"> F  </i>
   <i type="logical" name="LRHFCALC"> F  </i>
   <i type="logical" name="LTHOMAS"> F  </i>
   <i type="logical" name="LMODELHF"> F  </i>
   <i name="ENCUT4O">     -1.00000000</i>
   <i type="int" name="EXXOEP">     0</i>
   <i type="int" name="FOURORBIT">     0</i>
   <i name="AEXX">      0.00000000</i>
   <i name="HFALPHA">      0.00000000</i>
   <i name="MCALPHA">      0.00000000</i>
   <i name="ALDAX">      1.00000000</i>
   <i name="AGGAX">      1.00000000</i>
   <i name="ALDAC">      1.00000000</i>
   <i name="AGGAC">      1.00000000</i>
   <i type="int" name="NKREDX">     1</i>
   <i type="int" name="NKREDY">     1</i>
   <i type="int" name="NKREDZ">     1</i>
   <i type="logical" name="SHIFTRED"> F  </i>
   <i type="logical" name="ODDONLY"> F  </i>
   <i type="logical" name="EVENONLY"> F  </i>
   <i type="int" name="LMAXFOCK">     0</i>
   <i type="int" name="NMAXFOCKAE">     0</i>
   <i type="logical" name="LFOCKAEDFT"> F  </i>
   <i name="HFSCREEN">      0.00000000</i>
   <i name="HFSCREENC">      0.00000000</i>
   <i type="int" name="NBANDSGWLOW">     0</i>
  </separator>
  <separator name="vdW DFT" >
   <i type="logical" name="LUSE_VDW"> F  </i>
   <i name="Zab_VDW">     -0.84910000</i>
   <i name="PARAM1">      0.12340000</i>
   <i name="PARAM2">      1.00000000</i>
   <i name="PARAM3">      0.00000000</i>
  </separator>
  <separator name="model GW" >
   <i type="int" name="MODEL_GW">     0</i>
   <i name="MODEL_EPS0">      7.56646665</i>
   <i name="MODEL_ALPHA">      1.00000000</i>
  </separator>
  <separator name="linear response parameters" >
   <i type="logical" name="LEPSILON"> F  </i>
   <i type="logical" name="LRPA"> F  </i>
   <i type="logical" name="LNABLA"> F  </i>
   <i type="logical" name="LVEL"> F  </i>
   <i type="int" name="KINTER">     0</i>
   <i name="CSHIFT">      0.10000000</i>
   <i name="OMEGAMAX">     -1.00000000</i>
   <i name="DEG_THRESHOLD">      0.00200000</i>
  </separator>
  <separator name="orbital magnetization" >
   <i type="logical" name="NUCIND"> F  </i>
   <v name="MAGPOS">      0.00000000      0.00000000      0.00000000</v>
   <i type="logical" name="LNICSALL"> T  </i>
   <i type="logical" name="ORBITALMAG"> F  </i>
   <i type="logical" name="LMAGBLOCH"> F  </i>
   <i type="logical" name="LCHIMAG"> F  </i>
   <i type="logical" name="LGAUGE"> T  </i>
   <i type="int" name="MAGATOM">     0</i>
   <v name="MAGDIPOL">      0.00000000      0.00000000      0.00000000</v>
   <v name="AVECCONST">      0.00000000      0.00000000      0.00000000</v>
  </separator>
  <separator name="response functions" >
   <i type="logical" name="LADDER"> F  </i>
   <i type="logical" name="LFXC"> F  </i>
   <i type="logical" name="LHARTREE"> T  </i>
   <i type="int" name="IBSE">     0</i>
   <i type="logical" name="LTCTE"> F  </i>
   <i type="logical" name="LTETE"> F  </i>
   <i type="logical" name="LTRIPLET"> F  </i>
   <i type="logical" name="LFXCEPS"> F  </i>
   <i type="logical" name="LFXHEG"> F  </i>
   <i type="logical" name="L2ORDER"> F  </i>
   <i type="logical" name="LUSEW"> F  </i>
   <i name="ENCUTGW">     -2.00000000</i>
   <i name="ENCUTGWSOFT">     -2.00000000</i>
   <i name="ENCUTLF">     -1.00000000</i>
   <i type="int" name="LMAXMP2">    -1</i>
   <i name="SCISSOR">      0.00000000</i>
   <i type="int" name="NOMEGA">     0</i>
   <i type="int" name="NOMEGAR">     0</i>
   <i type="int" name="NBANDSGW">    -1</i>
   <i type="int" name="NBANDSO">    -1</i>
   <i type="int" name="NBANDSV">    -1</i>
   <i type="int" name="NELM">   300</i>
   <i type="int" name="DIM">     3</i>
   <i type="int" name="ANTIRES">     0</i>
   <i name="OMEGAMAX">    -30.00000000</i>
   <i name="OMEGAMIN">    -30.00000000</i>
   <i name="OMEGATL">   -200.00000000</i>
   <i type="int" name="OMEGAGRID">     0</i>
   <i name="CSHIFT">     -0.10000000</i>
   <i type="logical" name="SELFENERGY"> F  </i>
   <i type="logical" name="LSPECTRAL"> F  </i>
   <i type="logical" name="ODDONLYGW"> F  </i>
   <i type="logical" name="EVENONLYGW"> F  </i>
   <i type="int" name="NKREDLFX">     1</i>
   <i type="int" name="NKREDLFY">     1</i>
   <i type="int" name="NKREDLFZ">     1</i>
   <i type="int" name="MAXMEM">  1800</i>
   <i type="int" name="TELESCOPE">     0</i>
   <i type="int" name="TAUPAR">     1</i>
  </separator>
  <separator name="External order field" >
   <i name="OFIELD_KAPPA">      0.00000000</i>
   <v name="OFIELD_K">      0.00000000      0.00000000      0.00000000</v>
   <i name="OFIELD_Q6_NEAR">      0.00000000</i>
   <i name="OFIELD_Q6_FAR">      0.00000000</i>
   <i name="OFIELD_A">      0.00000000</i>
  </separator>
 </parameters>
 <atominfo>
  <atoms>      36 </atoms>
  <types>       3 </types>
  <array name="atoms" >
   <dimension dim="1">ion</dimension>
   <field type="string">element</field>
   <field type="int">atomtype</field>
   <set>
    <rc><c>Fe</c><c>   1</c></rc>
    <rc><c>Fe</c><c>   1</c></rc>
    <rc><c>Fe</c><c>   1</c></rc>
    <rc><c>Fe</c><c>   1</c></rc>
    <rc><c>Fe</c><c>   1</c></rc>
    <rc><c>Fe</c><c>   1</c></rc>
    <rc><c>Fe</c><c>   1</c></rc>
    <rc><c>Fe</c><c>   1</c></rc>
    <rc><c>Fe</c><c>   1</c></rc>
    <rc><c>Fe</c><c>   1</c></rc>
    <rc><c>Fe</c><c>   1</c></rc>
    <rc><c>Fe</c><c>   1</c></rc>
    <rc><c>O </c><c>   2</c></rc>
    <rc><c>O </c><c>   2</c></rc>
    <rc><c>F </c><c>   3</c></rc>
    <rc><c>F </c><c>   3</c></rc>
    <rc><c>F </c><c>   3</c></rc>
    <rc><c>F </c><c>   3</c></rc>
    <rc><c>F </c><c>   3</c></rc>
    <rc><c>F </c><c>   3</c></rc>
    <rc><c>F </c><c>   3</c></rc>
    <rc><c>F </c><c>   3</c></rc>
    <rc><c>F </c><c>   3</c></rc>
    <rc><c>F </c><c>   3</c></rc>
    <rc><c>F </c><c>   3</c></rc>
    <rc><c>F </c><c>   3</c></rc>
    <rc><c>F </c><c>   3</c></rc>
    <rc><c>F </c><c>   3</c></rc>
    <rc><c>F </c><c>   3</c></rc>
    <rc><c>F </c><c>   3</c></rc>
    <rc><c>F </c><c>   3</c></rc>
    <rc><c>F </c><c>   3</c></rc>
    <rc><c>F </c><c>   3</c></rc>
    <rc><c>F </c><c>   3</c></rc>
    <rc><c>F </c><c>   3</c></rc>
    <rc><c>F </c><c>   3</c></rc>
   </set>
  </array>
  <array name="atomtypes" >
   <dimension dim="1">type</dimension>
   <field type="int">atomspertype</field>
   <field type="string">element</field>
   <field>mass</field>
   <field>valence</field>
   <field type="string">pseudopotential</field>
   <set>
    <rc><c>  12</c><c>Fe</c><c>     55.84700000</c><c>      8.00000000</c><c>  PAW_PBE Fe 06Sep2000                  </c></rc>
    <rc><c>   2</c><c>O </c><c>     16.00000000</c><c>      6.00000000</c><c>  PAW_PBE O 08Apr2002                   </c></rc>
    <rc><c>  22</c><c>F </c><c>     18.99800000</c><c>      7.00000000</c><c>  PAW_PBE F 08Apr2002                   </c></rc>
   </set>
  </array>
 </atominfo>
 <structure name="initialpos" >
  <crystal>
   <varray name="basis" >
    <v>       3.25262800       0.00000000       0.00000000 </v>
    <v>       0.00000000      20.54938400      -0.06012000 </v>
    <v>       0.00000000       0.00000000       6.79221100 </v>
   </varray>
   <i name="volume">    453.98799923 </i>
   <varray name="rec_basis" >
    <v>       0.30744370       0.00000000       0.00000000 </v>
    <v>       0.00000000       0.04866326       0.00000000 </v>
    <v>       0.00000000       0.00043073       0.14722746 </v>
   </varray>
  </crystal>
  <varray name="positions" >
   <v>       0.00000000       0.16671900       0.50983800 </v>
   <v>       0.00000000       0.83328100       0.50139100 </v>
   <v>       0.00000000       0.66671900       0.00139100 </v>
   <v>       0.00000000       0.33328100       0.00139100 </v>
   <v>       0.50000000       0.16602100       0.00471600 </v>
   <v>       0.49986200       0.83397900       0.00000400 </v>
   <v>       0.50000000       0.66602100       0.49728900 </v>
   <v>       0.50000000       0.33397900       0.50000400 </v>
   <v>       0.00000000       0.00000000       0.01216200 </v>
   <v>       0.00000000       0.50000000       0.51216200 </v>
   <v>       0.50000000       0.00000000       0.47240000 </v>
   <v>       0.50000000       0.50000000       0.97849700 </v>
   <v>       0.00000000       0.00000000       0.31436200 </v>
   <v>       0.00000000       0.50000000       0.81436200 </v>
   <v>       0.00000000       0.16816900       0.20329900 </v>
   <v>       0.00000000       0.83183100       0.20329900 </v>
   <v>       0.00000000       0.66816900       0.70329900 </v>
   <v>       0.00000000       0.33183100       0.70329900 </v>
   <v>       0.00000000       0.16838200       0.79934600 </v>
   <v>       0.00000000       0.83161800       0.79934600 </v>
   <v>       0.00966200       0.66838200       0.29934600 </v>
   <v>       0.99086200       0.33161800       0.29934600 </v>
   <v>       0.50000000       0.06837200       0.99633700 </v>
   <v>       0.50000000       0.93162800       0.99633700 </v>
   <v>       0.50000000       0.57442400       0.49633700 </v>
   <v>       0.50000000       0.43162800       0.49633700 </v>
   <v>       0.50000000       0.09818400       0.50567900 </v>
   <v>       0.50000000       0.90181600       0.50567900 </v>
   <v>       0.49581600       0.59818400       0.00567900 </v>
   <v>       0.50000000       0.40181600       0.00567900 </v>
   <v>       0.50000000       0.23406000       0.50152500 </v>
   <v>       0.50000000       0.76594000       0.50152500 </v>
   <v>       0.50000000       0.73406000       0.00152500 </v>
   <v>       0.50000000       0.26594000       0.00152500 </v>
   <v>       0.00000000       0.00000000       0.69474100 </v>
   <v>       0.00000000       0.50000000       0.19429400 </v>
  </varray>
 </structure>
 <calculation>
  <scstep>
   <time name="diag">    0.35    0.49</time>
   <time name="diis">    0.46    0.63</time>
   <time name="orth">    0.05    0.08</time>
   <time name="total">    1.18    1.63</time>
   <energy>
    <i name="alphaZ">    943.57652748 </i>
    <i name="ewald"> -15984.25292294 </i>
    <i name="hartreedc">  -6699.85569646 </i>
    <i name="XCdc">    902.25011585 </i>
    <i name="pawpsdc">  19213.82102697 </i>
    <i name="pawaedc"> -19422.08171028 </i>
    <i name="eentropy">      0.01938192 </i>
    <i name="bandstr">   1818.47540902 </i>
    <i name="atom">  22504.09828397 </i>
    <i name="e_fr_energy">   3276.05041552 </i>
    <i name="e_wo_entrp">   3276.03103359 </i>
    <i name="e_0_energy">   3276.04395488 </i>
   </energy>
  </scstep>
  <scstep>
   <time name="diag">    0.26    0.40</time>
   <time name="diis">    0.41    0.53</time>
   <time name="orth">    0.07    0.07</time>
   <time name="total">    0.74    0.99</time>
   <energy>
    <i name="e_fr_energy">   1027.51835835 </i>
    <i name="e_wo_entrp">   1027.60723003 </i>
    <i name="e_0_energy">   1027.54798224 </i>
   </energy>
  </scstep>
  <scstep>
   <time name="diag">    0.20    0.21</time>
   <time name="diis">    0.47    0.55</time>
   <time name="orth">    0.16    0.16</time>
   <time name="total">    0.82    0.91</time>
   <energy>
    <i name="e_fr_energy">    347.63668688 </i>
    <i name="e_wo_entrp">    347.59778518 </i>
    <i name="e_0_energy">    347.62371965 </i>
   </energy>
  </scstep>
  <scstep>
   <time name="diag">    0.28    0.33</time>
   <time name="diis">    0.44    0.57</time>
   <time name="orth">    0.10    0.14</time>
   <time name="total">    0.82    1.04</time>
   <energy>
    <i name="e_fr_energy">     64.71240538 </i>
    <i name="e_wo_entrp">     64.74882339 </i>
    <i name="e_0_energy">     64.72454472 </i>
   </energy>
  </scstep>
  <scstep>
   <time name="diag">    0.21    0.27</time>
   <time name="diis">    0.37    0.54</time>
   <time name="orth">    0.08    0.08</time>
   <time name="total">    0.65    0.89</time>
   <energy>
    <i name="e_fr_energy">    -89.46540941 </i>
    <i name="e_wo_entrp">    -89.56711999 </i>
    <i name="e_0_energy">    -89.49931293 </i>
   </energy>
  </scstep>
  <scstep>
   <time name="diag">    0.18    0.25</time>
   <time name="diis">    0.38    0.56</time>
   <time name="orth">    0.05    0.06</time>
   <time name="total">    0.62    0.88</time>
   <energy>
    <i name="e_fr_energy">   -160.58184188 </i>
    <i name="e_wo_entrp">   -160.63957498 </i>
    <i name="e_0_energy">   -160.60108625 </i>
   </energy>
  </scstep>
  <scstep>
   <time name="diag">    0.28    0.36</time>
   <time name="diis">    0.35    0.48</time>
   <time name="orth">    0.08    0.08</time>
   <time name="total">    0.73    0.94</time>
   <energy>
    <i name="e_fr_energy">   -194.20707581 </i>
    <i name="e_wo_entrp">   -194.31695765 </i>
    <i name="e_0_energy">   -194.24370309 </i>
   </energy>
  </scstep>
  <scstep>
   <time name="diag">    0.34    0.34</time>
   <time name="diis">    0.51    0.51</time>
   <time name="orth">    0.09    0.09</time>
   <time name="total">    0.93    0.94</time>
   <energy>
    <i name="e_fr_energy">   -207.85809298 </i>
    <i name="e_wo_entrp">   -208.03346232 </i>
    <i name="e_0_energy">   -207.91654943 </i>
   </energy>
  </scstep>
  <scstep>
   <time name="diag">    0.20    0.20</time>
   <time name="diis">    1.68    1.68</time>
   <time name="orth">    0.13    0.13</time>
   <time name="total">    2.01    2.01</time>
   <energy>
    <i name="e_fr_energy">   -221.77099353 </i>
    <i name="e_wo_entrp">   -221.99188646 </i>
    <i name="e_0_energy">   -221.84462450 </i>
   </energy>
  </scstep>
  <scstep>
   <time name="diag">    0.17    0.17</time>
   <time name="diis">    1.52    1.52</time>
   <time name="orth">    0.06    0.06</time>
   <time name="total">    1.75    1.75</time>
   <energy>
    <i name="e_fr_energy">   -222.11933026 </i>
    <i name="e_wo_entrp">   -222.31567030 </i>
    <i name="e_0_energy">   -222.18477694 </i>
   </energy>
  </scstep>
  <scstep>
   <time name="diag">    0.27    0.27</time>
   <time name="diis">    1.44    1.45</time>
   <time name="orth">    0.09    0.09</time>
   <time name="total">    1.80    1.81</time>
   <energy>
    <i name="e_fr_energy">   -222.45918697 </i>
    <i name="e_wo_entrp">   -222.61853854 </i>
    <i name="e_0_energy">   -222.51230416 </i>
   </energy>
  </scstep>
  <scstep>
   <time name="diag">    0.26    0.26</time>
   <time name="diis">    1.24    1.24</time>
   <time name="orth">    0.10    0.10</time>
   <time name="total">    1.73    1.73</time>
   <energy>
    <i name="e_fr_energy">   -222.63753615 </i>
    <i name="e_wo_entrp">   -222.78387194 </i>
    <i name="e_0_energy">   -222.68631475 </i>
   </energy>
  </scstep>
  <scstep>
   <time name="diag">    0.20    0.20</time>
   <time name="diis">    1.11    1.13</time>
   <time name="orth">    0.14    0.14</time>
   <time name="total">    1.71    1.73</time>
   <energy>
    <i name="e_fr_energy">   -210.26830252 </i>
    <i name="e_wo_entrp">   -210.13314754 </i>
    <i name="e_0_energy">   -210.22325086 </i>
   </energy>
  </scstep>
  <scstep>
   <time name="diag">    0.28    0.28</time>
   <time name="diis">    0.86    1.01</time>
   <time name="orth">    0.11    0.17</time>
   <time name="total">    1.54    1.80</time>
   <energy>
    <i name="e_fr_energy">   -274.50566136 </i>
    <i name="e_wo_entrp">   -274.49441890 </i>
    <i name="e_0_energy">   -274.50191387 </i>
   </energy>
  </scstep>
  <scstep>
   <time name="diag">    0.47    0.47</time>
   <time name="diis">    0.86    1.18</time>
   <time name="orth">    0.17    0.22</time>
   <time name="total">    1.85    2.34</time>
   <energy>
    <i name="e_fr_energy">   -262.00798636 </i>
    <i name="e_wo_entrp">   -262.00336923 </i>
    <i name="e_0_energy">   -262.00644732 </i>
   </energy>
  </scstep>
  <scstep>
   <time name="diag">    0.19    0.21</time>
   <time name="diis">    0.87    1.04</time>
   <time name="orth">    0.03    0.03</time>
   <time name="total">    1.35    1.63</time>
   <energy>
    <i name="e_fr_energy">   -218.41199883 </i>
    <i name="e_wo_entrp">   -218.32779295 </i>
    <i name="e_0_energy">   -218.38393020 </i>
   </energy>
  </scstep>
  <scstep>
   <time name="diag">    0.16    0.19</time>
   <time name="diis">    0.78    0.95</time>
   <time name="orth">    0.04    0.06</time>
   <time name="total">    1.21    1.49</time>
   <energy>
    <i name="e_fr_energy">   -228.83333606 </i>
    <i name="e_wo_entrp">   -228.80778091 </i>
    <i name="e_0_energy">   -228.82481768 </i>
   </energy>
  </scstep>
  <scstep>
   <time name="diag">    0.17    0.21</time>
   <time name="diis">    0.89    1.17</time>
   <time name="orth">    0.05    0.05</time>
   <time name="total">    1.35    1.73</time>
   <energy>
    <i name="e_fr_energy">   -258.15256198 </i>
    <i name="e_wo_entrp">   -258.13954307 </i>
    <i name="e_0_energy">   -258.14822234 </i>
   </energy>
  </scstep>
  <scstep>
   <time name="diag">    0.26    0.35</time>
   <time name="diis">    0.81    1.13</time>
   <time name="orth">    0.11    0.16</time>
   <time name="total">    1.35    1.89</time>
   <energy>
    <i name="e_fr_energy">   -233.20029002 </i>
    <i name="e_wo_entrp">   -233.21149042 </i>
    <i name="e_0_energy">   -233.20402349 </i>
   </energy>
  </scstep>
  <scstep>
   <time name="diag">    0.15    0.21</time>
   <time name="diis">    0.76    1.00</time>
   <time name="orth">    0.05    0.06</time>
   <time name="total">    1.18    1.58</time>
   <energy>
    <i name="e_fr_energy">   -217.32568757 </i>
    <i name="e_wo_entrp">   -217.24848083 </i>
    <i name="e_0_energy">   -217.29995199 </i>
   </energy>
  </scstep>
  <scstep>
   <time name="diag">    0.23    0.34</time>
   <time name="diis">    0.60    1.21</time>
   <time name="orth">    0.05    0.10</time>
   <time name="total">    1.05    1.96</time>
   <energy>
    <i name="e_fr_energy">   -237.84865713 </i>
    <i name="e_wo_entrp">   -237.93361620 </i>
    <i name="e_0_energy">   -237.87697682 </i>
   </energy>
  </scstep>
  <scstep>
   <time name="diag">    0.20    0.20</time>
   <time name="diis">    0.67    1.04</time>
   <time name="orth">    0.03    0.07</time>
   <time name="total">    1.09    1.66</time>
   <energy>
    <i name="e_fr_energy">   -213.71789627 </i>
    <i name="e_wo_entrp">   -213.81191676 </i>
    <i name="e_0_energy">   -213.74923643 </i>
   </energy>
  </scstep>
  <scstep>
   <time name="diag">    0.36    0.42</time>
   <time name="diis">    0.87    0.99</time>
   <time name="orth">    0.17    0.24</time>
   <time name="total">    1.62    1.99</time>
   <energy>
    <i name="e_fr_energy">   -219.81996394 </i>
    <i name="e_wo_entrp">   -219.60967458 </i>
    <i name="e_0_energy">   -219.74986749 </i>
   </energy>
  </scstep>
  <scstep>
   <time name="diag">    0.26    0.36</time>
   <time name="diis">    0.96    1.13</time>
   <time name="orth">    0.16    0.23</time>
   <time name="total">    1.55    1.93</time>
   <energy>
    <i name="e_fr_energy">   -214.97150013 </i>
    <i name="e_wo_entrp">   -214.84240668 </i>
    <i name="e_0_energy">   -214.92846898 </i>
   </energy>
  </scstep>
  <scstep>
   <time name="diag">    0.20    0.20</time>
   <time name="diis">    0.86    1.14</time>
   <time name="orth">    0.18    0.23</time>
   <time name="total">    1.51    1.92</time>
   <energy>
    <i name="e_fr_energy">   -213.76517941 </i>
    <i name="e_wo_entrp">   -213.75319984 </i>
    <i name="e_0_energy">   -213.76118622 </i>
   </energy>
  </scstep>
  <scstep>
   <time name="diag">    0.24    0.33</time>
   <time name="diis">    0.73    1.06</time>
   <time name="orth">    0.02    0.02</time>
   <time name="total">    1.20    1.67</time>
   <energy>
    <i name="e_fr_energy">   -201.09546328 </i>
    <i name="e_wo_entrp">   -201.16318403 </i>
    <i name="e_0_energy">   -201.11803686 </i>
   </energy>
  </scstep>
  <scstep>
   <time name="diag">    0.14    0.17</time>
   <time name="diis">    0.76    0.96</time>
   <time name="orth">    0.04    0.04</time>
   <time name="total">    1.24    1.59</time>
   <energy>
    <i name="e_fr_energy">   -194.84947128 </i>
    <i name="e_wo_entrp">   -194.92780909 </i>
    <i name="e_0_energy">   -194.87558388 </i>
   </energy>
  </scstep>
  <scstep>
   <time name="diag">    0.29    0.29</time>
   <time name="diis">    1.04    1.04</time>
   <time name="orth">    0.04    0.04</time>
   <time name="total">    1.57    1.57</time>
   <energy>
    <i name="e_fr_energy">   -195.85712740 </i>
    <i name="e_wo_entrp">   -195.88899014 </i>
    <i name="e_0_energy">   -195.86774832 </i>
   </energy>
  </scstep>
  <scstep>
   <time name="diag">    0.17    0.17</time>
   <time name="diis">    1.03    1.03</time>
   <time name="orth">    0.09    0.09</time>
   <time name="total">    1.53    1.61</time>
   <energy>
    <i name="e_fr_energy">   -191.81114189 </i>
    <i name="e_wo_entrp">   -191.98140027 </i>
    <i name="e_0_energy">   -191.86789468 </i>
   </energy>
  </scstep>
  <scstep>
   <time name="diag">    0.22    0.22</time>
   <time name="diis">    1.03    1.03</time>
   <time name="orth">    0.07    0.07</time>
   <time name="total">    1.51    1.52</time>
   <energy>
    <i name="e_fr_energy">   -191.16896161 </i>
    <i name="e_wo_entrp">   -191.29521402 </i>
    <i name="e_0_energy">   -191.21104574 </i>
   </energy>
  </scstep>
  <scstep>
   <time name="diag">    0.22    0.23</time>
   <time name="diis">    0.98    0.98</time>
   <time name="orth">    0.07    0.07</time>
   <time name="total">    1.58    1.58</time>
   <energy>
    <i name="e_fr_energy">   -190.46659657 </i>
    <i name="e_wo_entrp">   -190.49561546 </i>
    <i name="e_0_energy">   -190.47626954 </i>
   </energy>
  </scstep>
  <scstep>
   <time name="diag">    0.36    0.37</time>
   <time name="diis">    1.06    1.06</time>
   <time name="orth">    0.06    0.06</time>
   <time name="total">    1.77    1.77</time>
   <energy>
    <i name="e_fr_energy">   -189.81503531 </i>
    <i name="e_wo_entrp">   -189.88972679 </i>
    <i name="e_0_energy">   -189.83993247 </i>
   </energy>
  </scstep>
  <scstep>
   <time name="diag">    0.43    0.43</time>
   <time name="diis">    1.02    1.02</time>
   <time name="orth">    0.04    0.04</time>
   <time name="total">    1.76    1.76</time>
   <energy>
    <i name="e_fr_energy">   -189.72408848 </i>
    <i name="e_wo_entrp">   -189.74632565 </i>
    <i name="e_0_energy">   -189.73150087 </i>
   </energy>
  </scstep>
  <scstep>
   <time name="diag">    0.26    0.26</time>
   <time name="diis">    1.14    1.14</time>
   <time name="orth">    0.08    0.08</time>
   <time name="total">    1.66    1.66</time>
   <energy>
    <i name="e_fr_energy">   -189.47445182 </i>
    <i name="e_wo_entrp">   -189.42417763 </i>
    <i name="e_0_energy">   -189.45769376 </i>
   </energy>
  </scstep>
  <scstep>
   <time name="diag">    0.28    0.35</time>
   <time name="diis">    0.94    1.38</time>
   <time name="orth">    0.10    0.15</time>
   <time name="total">    1.53    2.14</time>
   <energy>
    <i name="e_fr_energy">   -189.42063062 </i>
    <i name="e_wo_entrp">   -189.42617883 </i>
    <i name="e_0_energy">   -189.42248002 </i>
   </energy>
  </scstep>
  <scstep>
   <time name="diag">    0.43    0.57</time>
   <time name="diis">    0.82    1.19</time>
   <time name="orth">    0.07    0.09</time>
   <time name="total">    1.48    2.09</time>
   <energy>
    <i name="e_fr_energy">   -189.41968825 </i>
    <i name="e_wo_entrp">   -189.36433174 </i>
    <i name="e_0_energy">   -189.40123608 </i>
   </energy>
  </scstep>
  <scstep>
   <time name="diag">    0.45    0.46</time>
   <time name="diis">    1.05    1.05</time>
   <time name="orth">    0.11    0.11</time>
   <time name="total">    1.83    1.87</time>
   <energy>
    <i name="e_fr_energy">   -189.42287560 </i>
    <i name="e_wo_entrp">   -189.42668774 </i>
    <i name="e_0_energy">   -189.42414631 </i>
   </energy>
  </scstep>
  <scstep>
   <time name="diag">    0.22    0.22</time>
   <time name="diis">    1.04    1.04</time>
   <time name="orth">    0.04    0.05</time>
   <time name="total">    1.76    1.76</time>
   <energy>
    <i name="e_fr_energy">   -189.32343915 </i>
    <i name="e_wo_entrp">   -189.32174268 </i>
    <i name="e_0_energy">   -189.32287366 </i>
   </energy>
  </scstep>
  <scstep>
   <time name="diag">    0.15    0.16</time>
   <time name="diis">    0.95    0.95</time>
   <time name="orth">    0.09    0.09</time>
   <time name="total">    1.47    1.47</time>
   <energy>
    <i name="e_fr_energy">   -189.31557912 </i>
    <i name="e_wo_entrp">   -189.28773011 </i>
    <i name="e_0_energy">   -189.30629612 </i>
   </energy>
  </scstep>
  <scstep>
   <time name="diag">    0.22    0.22</time>
   <time name="diis">    0.98    0.98</time>
   <time name="orth">    0.05    0.05</time>
   <time name="total">    1.57    1.57</time>
   <energy>
    <i name="e_fr_energy">   -189.25596225 </i>
    <i name="e_wo_entrp">   -189.25282853 </i>
    <i name="e_0_energy">   -189.25491768 </i>
   </energy>
  </scstep>
  <scstep>
   <time name="diag">    0.22    0.22</time>
   <time name="diis">    0.94    0.94</time>
   <time name="orth">    0.07    0.07</time>
   <time name="total">    1.58    1.58</time>
   <energy>
    <i name="e_fr_energy">   -189.24727187 </i>
    <i name="e_wo_entrp">   -189.23628547 </i>
    <i name="e_0_energy">   -189.24360974 </i>
   </energy>
  </scstep>
  <scstep>
   <time name="diag">    0.19    0.19</time>
   <time name="diis">    1.02    1.04</time>
   <time name="orth">    0.22    0.22</time>
   <time name="total">    1.81    1.83</time>
   <energy>
    <i name="e_fr_energy">   -189.22799007 </i>
    <i name="e_wo_entrp">   -189.22575115 </i>
    <i name="e_0_energy">   -189.22724376 </i>
   </energy>
  </scstep>
  <scstep>
   <time name="diag">    0.17    0.17</time>
   <time name="diis">    1.01    1.02</time>
   <time name="orth">    0.08    0.08</time>
   <time name="total">    1.53    1.55</time>
   <energy>
    <i name="e_fr_energy">   -189.21463649 </i>
    <i name="e_wo_entrp">   -189.22542643 </i>
    <i name="e_0_energy">   -189.21823313 </i>
   </energy>
  </scstep>
  <scstep>
   <time name="diag">    0.25    0.25</time>
   <time name="diis">    1.17    1.17</time>
   <time name="orth">    0.12    0.12</time>
   <time name="total">    1.78    1.78</time>
   <energy>
    <i name="e_fr_energy">   -189.20941810 </i>
    <i name="e_wo_entrp">   -189.22362124 </i>
    <i name="e_0_energy">   -189.21415248 </i>
   </energy>
  </scstep>
  <scstep>
   <time name="diag">    0.23    0.28</time>
   <time name="diis">    0.79    0.94</time>
   <time name="orth">    0.12    0.14</time>
   <time name="total">    1.44    1.74</time>
   <energy>
    <i name="e_fr_energy">   -189.20752339 </i>
    <i name="e_wo_entrp">   -189.22917500 </i>
    <i name="e_0_energy">   -189.21474059 </i>
   </energy>
  </scstep>
  <scstep>
   <time name="diag">    0.23    0.31</time>
   <time name="diis">    0.71    0.99</time>
   <time name="orth">    0.13    0.20</time>
   <time name="total">    1.27    1.79</time>
   <energy>
    <i name="e_fr_energy">   -189.20766665 </i>
    <i name="e_wo_entrp">   -189.23482267 </i>
    <i name="e_0_energy">   -189.21671866 </i>
   </energy>
  </scstep>
  <scstep>
   <time name="diag">    0.35    0.46</time>
   <time name="diis">    0.83    1.02</time>
   <time name="orth">    0.09    0.09</time>
   <time name="total">    1.52    1.86</time>
   <energy>
    <i name="e_fr_energy">   -189.20717866 </i>
    <i name="e_wo_entrp">   -189.23755254 </i>
    <i name="e_0_energy">   -189.21730329 </i>
   </energy>
  </scstep>
  <scstep>
   <time name="diag">    0.36    0.36</time>
   <time name="diis">    0.53    0.53</time>
   <time name="orth">    0.13    0.13</time>
   <time name="total">    1.24    1.25</time>
   <energy>
    <i name="e_fr_energy">   -189.20682323 </i>
    <i name="e_wo_entrp">   -189.23762909 </i>
    <i name="e_0_energy">   -189.21709185 </i>
   </energy>
  </scstep>
  <scstep>
   <time name="diag">    0.21    0.22</time>
   <time name="diis">    0.61    0.61</time>
   <time name="orth">    0.13    0.13</time>
   <time name="total">    1.22    1.22</time>
   <energy>
    <i name="e_fr_energy">   -189.20620114 </i>
    <i name="e_wo_entrp">   -189.23801448 </i>
    <i name="e_0_energy">   -189.21680559 </i>
   </energy>
  </scstep>
  <scstep>
   <time name="diag">    0.32    0.32</time>
   <time name="diis">    0.58    0.60</time>
   <time name="orth">    0.11    0.22</time>
   <time name="total">    1.19    1.32</time>
   <energy>
    <i name="alphaZ">    943.57652748 </i>
    <i name="ewald"> -15984.25292294 </i>
    <i name="hartreedc">  -6859.51667222 </i>
    <i name="XCdc">    918.48378954 </i>
    <i name="pawpsdc">  22436.56844160 </i>
    <i name="pawaedc"> -22647.22181654 </i>
    <i name="eentropy">      0.03216724 </i>
    <i name="bandstr">  -1500.97401016 </i>
    <i name="atom">  22504.09828397 </i>
    <i name="e_fr_energy">   -189.20621204 </i>
    <i name="e_wo_entrp">   -189.23837928 </i>
    <i name="e_0_energy">   -189.21693445 </i>
   </energy>
  </scstep>
  <structure>
   <crystal>
    <varray name="basis" >
     <v>       3.25262800       0.00000000       0.00000000 </v>
     <v>       0.00000000      20.54938400      -0.06012000 </v>
     <v>       0.00000000       0.00000000       6.79221100 </v>
    </varray>
    <i name="volume">    453.98799923 </i>
    <varray name="rec_basis" >
     <v>       0.30744370       0.00000000       0.00000000 </v>
     <v>       0.00000000       0.04866326       0.00000000 </v>
     <v>       0.00000000       0.00043073       0.14722746 </v>
    </varray>
   </crystal>
   <varray name="positions" >
    <v>       0.00000000       0.16671900       0.50983800 </v>
    <v>       0.00000000       0.83328100       0.50139100 </v>
    <v>       0.00000000       0.66671900       0.00139100 </v>
    <v>       0.00000000       0.33328100       0.00139100 </v>
    <v>       0.50000000       0.16602100       0.00471600 </v>
    <v>       0.49986200       0.83397900       0.00000400 </v>
    <v>       0.50000000       0.66602100       0.49728900 </v>
    <v>       0.50000000       0.33397900       0.50000400 </v>
    <v>       0.00000000       0.00000000       0.01216200 </v>
    <v>       0.00000000       0.50000000       0.51216200 </v>
    <v>       0.50000000       0.00000000       0.47240000 </v>
    <v>       0.50000000       0.50000000       0.97849700 </v>
    <v>       0.00000000       0.00000000       0.31436200 </v>
    <v>       0.00000000       0.50000000       0.81436200 </v>
    <v>       0.00000000       0.16816900       0.20329900 </v>
    <v>       0.00000000       0.83183100       0.20329900 </v>
    <v>       0.00000000       0.66816900       0.70329900 </v>
    <v>       0.00000000       0.33183100       0.70329900 </v>
    <v>       0.00000000       0.16838200       0.79934600 </v>
    <v>       0.00000000       0.83161800       0.79934600 </v>
    <v>       0.00966200       0.66838200       0.29934600 </v>
    <v>       0.99086200       0.33161800       0.29934600 </v>
    <v>       0.50000000       0.06837200       0.99633700 </v>
    <v>       0.50000000       0.93162800       0.99633700 </v>
    <v>       0.50000000       0.57442400       0.49633700 </v>
    <v>       0.50000000       0.43162800       0.49633700 </v>
    <v>       0.50000000       0.09818400       0.50567900 </v>
    <v>       0.50000000       0.90181600       0.50567900 </v>
    <v>       0.49581600       0.59818400       0.00567900 </v>
    <v>       0.50000000       0.40181600       0.00567900 </v>
    <v>       0.50000000       0.23406000       0.50152500 </v>
    <v>       0.50000000       0.76594000       0.50152500 </v>
    <v>       0.50000000       0.73406000       0.00152500 </v>
    <v>       0.50000000       0.26594000       0.00152500 </v>
    <v>       0.00000000       0.00000000       0.69474100 </v>
    <v>       0.00000000       0.50000000       0.19429400 </v>
   </varray>
  </structure>
  <varray name="forces" >
   <v>       0.00024627      -0.10092336      -0.48899942 </v>
   <v>       0.00074511       0.11311463       0.07529519 </v>
   <v>       0.08595065      -0.08542949       0.01414623 </v>
   <v>      -0.11986567       0.09704334       0.06166912 </v>
   <v>      -0.00003797       0.26707733      -0.19869393 </v>
   <v>       0.00119499      -0.27225329       0.07033458 </v>
   <v>       0.12557433       0.88174799       0.33077890 </v>
   <v>      -0.11781216      -0.25805037       0.08320461 </v>
   <v>       0.00047597      -0.00267480       0.97157008 </v>
   <v>      -0.00038836       0.20738057       1.21956227 </v>
   <v>      -0.00009770       0.00680418       0.10138603 </v>
   <v>      -0.03204848       0.02339503      -0.58474379 </v>
   <v>      -0.00000692      -0.00732725      -1.09005323 </v>
   <v>      -0.00538060      -0.01404091      -0.80202531 </v>
   <v>       0.00031701      -0.19378082      -0.00762629 </v>
   <v>      -0.00207218       0.19405168      -0.24352884 </v>
   <v>      -0.08691016      -0.15663321      -0.23811217 </v>
   <v>       0.07907780       0.18186548      -0.22527021 </v>
   <v>      -0.00003781      -0.18047069       0.45514210 </v>
   <v>      -0.00171056       0.19042447       0.18166849 </v>
   <v>      -0.20010027      -0.15469920       0.00271135 </v>
   <v>       0.18062711       0.19508525       0.15600639 </v>
   <v>      -0.00035036      -0.48525785       0.24873335 </v>
   <v>      -0.00014390       0.49435832       0.20615788 </v>
   <v>       0.00928518      -1.37312269       0.12062674 </v>
   <v>      -0.00504685       0.43867146       0.15367966 </v>
   <v>       0.00024238       0.87374984      -0.05102868 </v>
   <v>      -0.00027363      -0.89476962      -0.18275189 </v>
   <v>       0.07414778       0.83549498      -0.11670261 </v>
   <v>       0.00327838      -0.82396923      -0.12904771 </v>
   <v>      -0.00722246      -0.41310154       0.08970205 </v>
   <v>       0.00765817       0.44110263      -0.05571052 </v>
   <v>       0.02053708      -0.40659007      -0.01997195 </v>
   <v>      -0.00530629       0.38129988       0.00914654 </v>
   <v>      -0.00001019       0.00266099      -0.14489666 </v>
   <v>      -0.00453567      -0.00223366       0.02764165 </v>
  </varray>
  <varray name="stress" >
   <v>    -246.44875041       0.01716508       0.03643248 </v>
   <v>       0.01716593    -256.05495606       0.82330117 </v>
   <v>       0.03643251       0.82330224    -287.01071768 </v>
  </varray>
  <energy>
   <i name="e_fr_energy">   -189.20621204 </i>
   <i name="e_wo_entrp">   -189.21693445 </i>
   <i name="e_0_energy">      0.03216724 </i>
  </energy>
  <time name="totalsc">   73.96   84.66</time>
  <eigenvalues>
   <array>
    <dimension dim="1">band</dimension>
    <dimension dim="2">kpoint</dimension>
    <dimension dim="3">spin</dimension>
    <field>eigene</field>
    <field>occ</field>
    <set>
     <set comment="spin 1">
      <set comment="kpoint 1">
       <r>  -22.7403    1.0000 </r>
       <r>  -22.7199    1.0000 </r>
       <r>  -22.5933    1.0000 </r>
       <r>  -22.5703    1.0000 </r>
       <r>  -22.3857    1.0000 </r>
       <r>  -22.3569    1.0000 </r>
       <r>  -22.3343    1.0000 </r>
       <r>  -22.3018    1.0000 </r>
       <r>  -22.2746    1.0000 </r>
       <r>  -22.2723    1.0000 </r>
       <r>  -22.2513    1.0000 </r>
       <r>  -22.2454    1.0000 </r>
       <r>  -22.2196    1.0000 </r>
       <r>  -22.2008    1.0000 </r>
       <r>  -22.1770    1.0000 </r>
       <r>  -22.1623    1.0000 </r>
       <r>  -22.1554    1.0000 </r>
       <r>  -22.1304    1.0000 </r>
       <r>  -22.1257    1.0000 </r>
       <r>  -22.0908    1.0000 </r>
       <r>  -21.1293    1.0000 </r>
       <r>  -20.9581    1.0000 </r>
       <r>  -16.5517    1.0000 </r>
       <r>  -16.3656    1.0000 </r>
       <r>   -6.1816    1.0000 </r>
       <r>   -6.0850    1.0000 </r>
       <r>   -5.9155    1.0000 </r>
       <r>   -5.8402    1.0000 </r>
       <r>   -5.6627    1.0000 </r>
       <r>   -5.4590    1.0000 </r>
       <r>   -5.4283    1.0000 </r>
       <r>   -5.3544    1.0000 </r>
       <r>   -5.2637    1.0000 </r>
       <r>   -5.0846    1.0000 </r>
       <r>   -4.6237    1.0000 </r>
       <r>   -4.5972    1.0000 </r>
       <r>   -4.5231    1.0000 </r>
       <r>   -4.5125    1.0000 </r>
       <r>   -4.4846    1.0000 </r>
       <r>   -4.3654    1.0000 </r>
       <r>   -4.3567    1.0000 </r>
       <r>   -4.3392    1.0000 </r>
       <r>   -4.3327    1.0000 </r>
       <r>   -4.3197    1.0000 </r>
       <r>   -4.2990    1.0000 </r>
       <r>   -4.2725    1.0000 </r>
       <r>   -4.2701    1.0000 </r>
       <r>   -4.2318    1.0000 </r>
       <r>   -4.2246    1.0000 </r>
       <r>   -4.1972    1.0000 </r>
       <r>   -4.1725    1.0000 </r>
       <r>   -4.1718    1.0000 </r>
       <r>   -4.1556    1.0000 </r>
       <r>   -4.1464    1.0000 </r>
       <r>   -4.1220    1.0000 </r>
       <r>   -4.0960    1.0000 </r>
       <r>   -4.0817    1.0000 </r>
       <r>   -4.0617    1.0000 </r>
       <r>   -4.0428    1.0000 </r>
       <r>   -4.0201    1.0000 </r>
       <r>   -3.9418    1.0000 </r>
       <r>   -3.8641    1.0000 </r>
       <r>   -3.8486    1.0000 </r>
       <r>   -3.6967    1.0000 </r>
       <r>   -3.6069    1.0000 </r>
       <r>   -3.5732    1.0000 </r>
       <r>   -3.5692    1.0000 </r>
       <r>   -3.5102    1.0000 </r>
       <r>   -3.5018    1.0000 </r>
       <r>   -3.4880    1.0000 </r>
       <r>   -3.4345    1.0000 </r>
       <r>   -3.3907    1.0000 </r>
       <r>   -3.2721    1.0000 </r>
       <r>   -3.2545    1.0000 </r>
       <r>   -3.2142    1.0000 </r>
       <r>   -3.1895    1.0000 </r>
       <r>   -3.1842    1.0000 </r>
       <r>   -3.1685    1.0000 </r>
       <r>   -3.1347    1.0000 </r>
       <r>   -3.1238    1.0000 </r>
       <r>   -3.0671    1.0000 </r>
       <r>   -3.0300    1.0000 </r>
       <r>   -3.0107    1.0000 </r>
       <r>   -2.9420    1.0000 </r>
       <r>   -2.8531    1.0000 </r>
       <r>   -2.8196    1.0000 </r>
       <r>   -2.6569    1.0000 </r>
       <r>   -2.5809    1.0000 </r>
       <r>   -2.1134    1.0000 </r>
       <r>   -2.0510    1.0000 </r>
       <r>   -2.0413    1.0000 </r>
       <r>   -1.9884    1.0000 </r>
       <r>   -1.8206    1.0000 </r>
       <r>   -1.7907    1.0000 </r>
       <r>   -1.2835    1.0000 </r>
       <r>   -1.1655    1.0000 </r>
       <r>    0.8276    1.0000 </r>
       <r>    0.8623    1.0000 </r>
       <r>    0.9179    1.0000 </r>
       <r>    0.9351    1.0000 </r>
       <r>    0.9594    1.0000 </r>
       <r>    0.9736    1.0000 </r>
       <r>    0.9977    1.0000 </r>
       <r>    1.0092    1.0000 </r>
       <r>    1.0188    1.0000 </r>
       <r>    1.0465    1.0000 </r>
       <r>    1.0702    1.0000 </r>
       <r>    1.1206    1.0000 </r>
       <r>    1.1667    1.0000 </r>
       <r>    1.1747    1.0000 </r>
       <r>    1.1874    1.0000 </r>
       <r>    1.1967    1.0000 </r>
       <r>    1.2257    1.0000 </r>
       <r>    1.2365    1.0001 </r>
       <r>    1.2418    1.0001 </r>
       <r>    1.2604    1.0001 </r>
       <r>    1.2716    1.0001 </r>
       <r>    1.3040    1.0003 </r>
       <r>    1.3250    1.0006 </r>
       <r>    1.3340    1.0007 </r>
       <r>    1.3751    1.0018 </r>
       <r>    1.3963    1.0027 </r>
       <r>    1.4460    1.0068 </r>
       <r>    1.5039    1.0160 </r>
       <r>    1.5516    1.0267 </r>
       <r>    1.6147    1.0354 </r>
       <r>    1.6879    0.9996 </r>
       <r>    1.7040    0.9788 </r>
       <r>    1.7584    0.8631 </r>
       <r>    1.7954    0.7434 </r>
       <r>    1.8323    0.5987 </r>
       <r>    1.8508    0.5212 </r>
       <r>    1.9026    0.3081 </r>
       <r>    1.9730    0.0864 </r>
       <r>    1.9890    0.0526 </r>
       <r>    2.0660   -0.0296 </r>
       <r>    2.0839   -0.0342 </r>
       <r>    2.1057   -0.0354 </r>
       <r>    2.1232   -0.0338 </r>
       <r>    2.1312   -0.0326 </r>
       <r>    2.1549   -0.0279 </r>
       <r>    2.1847   -0.0210 </r>
       <r>    2.2366   -0.0108 </r>
       <r>    2.2396   -0.0103 </r>
       <r>    2.2708   -0.0062 </r>
       <r>    2.3860   -0.0006 </r>
       <r>    2.3904   -0.0005 </r>
       <r>    2.4161   -0.0003 </r>
       <r>    2.4206   -0.0002 </r>
       <r>    2.4653   -0.0001 </r>
       <r>    2.5616   -0.0000 </r>
       <r>    2.9337   -0.0000 </r>
       <r>    3.0975   -0.0000 </r>
       <r>    3.2290   -0.0000 </r>
       <r>    3.2852   -0.0000 </r>
       <r>    3.3308   -0.0000 </r>
       <r>    4.1273   -0.0000 </r>
       <r>    4.6361   -0.0000 </r>
       <r>    4.9211   -0.0000 </r>
       <r>    6.3921   -0.0000 </r>
      </set>
     </set>
    </set>
   </array>
  </eigenvalues>
  <separator name="orbital magnetization" >
   <v name="MAGDIPOLOUT">      0.00000000      0.00000000      0.00000000</v>
  </separator>
  <dos>
   <i name="efermi">      1.85583352 </i>
   <total>
    <array>
     <dimension dim="1">gridpoints</dimension>
     <dimension dim="2">spin</dimension>
     <field>energy</field>
     <field>total</field>
     <field>integrated</field>
     <set>
      <set comment="spin 1">
       <r>   -24.7403     0.0000     0.0000 </r>
       <r>   -24.6298     0.0000     0.0000 </r>
       <r>   -24.5194     0.0000     0.0000 </r>
       <r>   -24.4089    -0.0000    -0.0000 </r>
       <r>   -24.2985    -0.0000    -0.0000 </r>
       <r>   -24.1881    -0.0000    -0.0000 </r>
       <r>   -24.0776    -0.0000    -0.0000 </r>
       <r>   -23.9672    -0.0000    -0.0000 </r>
       <r>   -23.8567    -0.0000    -0.0000 </r>
       <r>   -23.7463    -0.0000    -0.0000 </r>
       <r>   -23.6359    -0.0000    -0.0000 </r>
       <r>   -23.5254    -0.0000    -0.0000 </r>
       <r>   -23.4150    -0.0003    -0.0000 </r>
       <r>   -23.3045    -0.0068    -0.0008 </r>
       <r>   -23.1941    -0.0872    -0.0104 </r>
       <r>   -23.0837    -0.5182    -0.0677 </r>
       <r>   -22.9732    -0.9963    -0.1777 </r>
       <r>   -22.8628     2.3799     0.0852 </r>
       <r>   -22.7523    13.2396     1.5474 </r>
       <r>   -22.6419    22.5172     4.0342 </r>
       <r>   -22.5314    21.1722     6.3725 </r>
       <r>   -22.4210    27.0860     9.3639 </r>
       <r>   -22.3106    62.1326    16.2259 </r>
       <r>   -22.2001    97.6336    27.0086 </r>
       <r>   -22.0897    84.6924    36.3622 </r>
       <r>   -21.9792    35.5542    40.2888 </r>
       <r>   -21.8688     2.2839    40.5410 </r>
       <r>   -21.7584    -3.4702    40.1578 </r>
       <r>   -21.6479    -1.2510    40.0196 </r>
       <r>   -21.5375    -0.2941    39.9871 </r>
       <r>   -21.4270    -0.4339    39.9392 </r>
       <r>   -21.3166    -0.0275    39.9362 </r>
       <r>   -21.2062     3.5589    40.3292 </r>
       <r>   -21.0957     9.4142    41.3689 </r>
       <r>   -20.9853    12.1067    42.7060 </r>
       <r>   -20.8748     9.1072    43.7118 </r>
       <r>   -20.7644     3.2440    44.0701 </r>
       <r>   -20.6539    -0.1153    44.0574 </r>
       <r>   -20.5435    -0.4034    44.0128 </r>
       <r>   -20.4331    -0.1042    44.0013 </r>
       <r>   -20.3226    -0.0113    44.0001 </r>
       <r>   -20.2122    -0.0006    44.0000 </r>
       <r>   -20.1017    -0.0000    44.0000 </r>
       <r>   -19.9913    -0.0000    44.0000 </r>
       <r>   -19.8809    -0.0000    44.0000 </r>
       <r>   -19.7704    -0.0000    44.0000 </r>
       <r>   -19.6600    -0.0000    44.0000 </r>
       <r>   -19.5495     0.0000    44.0000 </r>
       <r>   -19.4391     0.0000    44.0000 </r>
       <r>   -19.3287     0.0000    44.0000 </r>
       <r>   -19.2182     0.0000    44.0000 </r>
       <r>   -19.1078     0.0000    44.0000 </r>
       <r>   -18.9973     0.0000    44.0000 </r>
       <r>   -18.8869     0.0000    44.0000 </r>
       <r>   -18.7764     0.0000    44.0000 </r>
       <r>   -18.6660     0.0000    44.0000 </r>
       <r>   -18.5556     0.0000    44.0000 </r>
       <r>   -18.4451     0.0000    44.0000 </r>
       <r>   -18.3347     0.0000    44.0000 </r>
       <r>   -18.2242    -0.0000    44.0000 </r>
       <r>   -18.1138    -0.0000    44.0000 </r>
       <r>   -18.0034    -0.0000    44.0000 </r>
       <r>   -17.8929    -0.0000    44.0000 </r>
       <r>   -17.7825    -0.0000    44.0000 </r>
       <r>   -17.6720    -0.0000    44.0000 </r>
       <r>   -17.5616    -0.0000    44.0000 </r>
       <r>   -17.4512    -0.0000    44.0000 </r>
       <r>   -17.3407    -0.0000    44.0000 </r>
       <r>   -17.2303    -0.0002    44.0000 </r>
       <r>   -17.1198    -0.0039    43.9996 </r>
       <r>   -17.0094    -0.0477    43.9943 </r>
       <r>   -16.8989    -0.2658    43.9649 </r>
       <r>   -16.7885    -0.4180    43.9188 </r>
       <r>   -16.6781     1.4860    44.0829 </r>
       <r>   -16.5676     6.6164    44.8136 </r>
       <r>   -16.4572    10.8995    46.0174 </r>
       <r>   -16.3467    10.8354    47.2140 </r>
       <r>   -16.2363     6.4639    47.9279 </r>
       <r>   -16.1259     1.3861    48.0810 </r>
       <r>   -16.0154    -0.4278    48.0338 </r>
       <r>   -15.9050    -0.2570    48.0054 </r>
       <r>   -15.7945    -0.0450    48.0004 </r>
       <r>   -15.6841    -0.0036    48.0000 </r>
       <r>   -15.5737    -0.0001    48.0000 </r>
       <r>   -15.4632    -0.0000    48.0000 </r>
       <r>   -15.3528    -0.0000    48.0000 </r>
       <r>   -15.2423    -0.0000    48.0000 </r>
       <r>   -15.1319    -0.0000    48.0000 </r>
       <r>   -15.0214     0.0000    48.0000 </r>
       <r>   -14.9110     0.0000    48.0000 </r>
       <r>   -14.8006     0.0000    48.0000 </r>
       <r>   -14.6901     0.0000    48.0000 </r>
       <r>   -14.5797     0.0000    48.0000 </r>
       <r>   -14.4692     0.0000    48.0000 </r>
       <r>   -14.3588     0.0000    48.0000 </r>
       <r>   -14.2484     0.0000    48.0000 </r>
       <r>   -14.1379     0.0000    48.0000 </r>
       <r>   -14.0275     0.0000    48.0000 </r>
       <r>   -13.9170     0.0000    48.0000 </r>
       <r>   -13.8066     0.0000    48.0000 </r>
       <r>   -13.6962     0.0000    48.0000 </r>
       <r>   -13.5857     0.0000    48.0000 </r>
       <r>   -13.4753     0.0000    48.0000 </r>
       <r>   -13.3648     0.0000    48.0000 </r>
       <r>   -13.2544     0.0000    48.0000 </r>
       <r>   -13.1439     0.0000    48.0000 </r>
       <r>   -13.0335     0.0000    48.0000 </r>
       <r>   -12.9231     0.0000    48.0000 </r>
       <r>   -12.8126     0.0000    48.0000 </r>
       <r>   -12.7022     0.0000    48.0000 </r>
       <r>   -12.5917     0.0000    48.0000 </r>
       <r>   -12.4813     0.0000    48.0000 </r>
       <r>   -12.3709     0.0000    48.0000 </r>
       <r>   -12.2604     0.0000    48.0000 </r>
       <r>   -12.1500     0.0000    48.0000 </r>
       <r>   -12.0395     0.0000    48.0000 </r>
       <r>   -11.9291     0.0000    48.0000 </r>
       <r>   -11.8187     0.0000    48.0000 </r>
       <r>   -11.7082     0.0000    48.0000 </r>
       <r>   -11.5978     0.0000    48.0000 </r>
       <r>   -11.4873     0.0000    48.0000 </r>
       <r>   -11.3769     0.0000    48.0000 </r>
       <r>   -11.2665     0.0000    48.0000 </r>
       <r>   -11.1560     0.0000    48.0000 </r>
       <r>   -11.0456     0.0000    48.0000 </r>
       <r>   -10.9351     0.0000    48.0000 </r>
       <r>   -10.8247     0.0000    48.0000 </r>
       <r>   -10.7142     0.0000    48.0000 </r>
       <r>   -10.6038     0.0000    48.0000 </r>
       <r>   -10.4934     0.0000    48.0000 </r>
       <r>   -10.3829     0.0000    48.0000 </r>
       <r>   -10.2725     0.0000    48.0000 </r>
       <r>   -10.1620     0.0000    48.0000 </r>
       <r>   -10.0516     0.0000    48.0000 </r>
       <r>    -9.9412     0.0000    48.0000 </r>
       <r>    -9.8307     0.0000    48.0000 </r>
       <r>    -9.7203     0.0000    48.0000 </r>
       <r>    -9.6098     0.0000    48.0000 </r>
       <r>    -9.4994     0.0000    48.0000 </r>
       <r>    -9.3890     0.0000    48.0000 </r>
       <r>    -9.2785     0.0000    48.0000 </r>
       <r>    -9.1681     0.0000    48.0000 </r>
       <r>    -9.0576     0.0000    48.0000 </r>
       <r>    -8.9472     0.0000    48.0000 </r>
       <r>    -8.8367     0.0000    48.0000 </r>
       <r>    -8.7263     0.0000    48.0000 </r>
       <r>    -8.6159     0.0000    48.0000 </r>
       <r>    -8.5054     0.0000    48.0000 </r>
       <r>    -8.3950     0.0000    48.0000 </r>
       <r>    -8.2845     0.0000    48.0000 </r>
       <r>    -8.1741     0.0000    48.0000 </r>
       <r>    -8.0637     0.0000    48.0000 </r>
       <r>    -7.9532     0.0000    48.0000 </r>
       <r>    -7.8428    -0.0000    48.0000 </r>
       <r>    -7.7323    -0.0000    48.0000 </r>
       <r>    -7.6219    -0.0000    48.0000 </r>
       <r>    -7.5115    -0.0000    48.0000 </r>
       <r>    -7.4010    -0.0000    48.0000 </r>
       <r>    -7.2906    -0.0000    48.0000 </r>
       <r>    -7.1801    -0.0000    48.0000 </r>
       <r>    -7.0697    -0.0000    48.0000 </r>
       <r>    -6.9592    -0.0000    48.0000 </r>
       <r>    -6.8488    -0.0002    48.0000 </r>
       <r>    -6.7384    -0.0055    47.9994 </r>
       <r>    -6.6279    -0.0658    47.9921 </r>
       <r>    -6.5175    -0.3653    47.9517 </r>
       <r>    -6.4070    -0.6137    47.8840 </r>
       <r>    -6.2966     1.9158    48.0955 </r>
       <r>    -6.1862     9.2102    49.1127 </r>
       <r>    -6.0757    15.1576    50.7867 </r>
       <r>    -5.9653    16.2009    52.5760 </r>
       <r>    -5.8548    16.5708    54.4061 </r>
       <r>    -5.7444    14.4725    56.0044 </r>
       <r>    -5.6340    10.8956    57.2078 </r>
       <r>    -5.5235    13.2822    58.6747 </r>
       <r>    -5.4131    22.1655    61.1227 </r>
       <r>    -5.3026    25.1541    63.9007 </r>
       <r>    -5.1922    18.2074    65.9116 </r>
       <r>    -5.0817    11.3344    67.1633 </r>
       <r>    -4.9713     5.9758    67.8233 </r>
       <r>    -4.8609     0.1737    67.8425 </r>
       <r>    -4.7504     0.6409    67.9133 </r>
       <r>    -4.6400    13.7361    69.4303 </r>
       <r>    -4.5295    32.6050    73.0312 </r>
       <r>    -4.4191    51.6915    78.7401 </r>
       <r>    -4.3087    81.4290    87.7332 </r>
       <r>    -4.1982   109.1430    99.7871 </r>
       <r>    -4.0878   106.1735   111.5130 </r>
       <r>    -3.9773    72.8983   119.5640 </r>
       <r>    -3.8669    37.8152   123.7403 </r>
       <r>    -3.7565    21.3400   126.0971 </r>
       <r>    -3.6460    27.7090   129.1573 </r>
       <r>    -3.5356    47.2810   134.3791 </r>
       <r>    -3.4251    52.0496   140.1275 </r>
       <r>    -3.3147    45.9188   145.1988 </r>
       <r>    -3.2042    57.2884   151.5258 </r>
       <r>    -3.0938    68.4558   159.0862 </r>
       <r>    -2.9834    55.5441   165.2205 </r>
       <r>    -2.8729    35.3461   169.1242 </r>
       <r>    -2.7625    23.0195   171.6665 </r>
       <r>    -2.6520    18.0845   173.6638 </r>
       <r>    -2.5416    14.5275   175.2682 </r>
       <r>    -2.4312     6.2318   175.9564 </r>
       <r>    -2.3207    -0.6921   175.8800 </r>
       <r>    -2.2103     3.1992   176.2333 </r>
       <r>    -2.0998    18.9932   178.3310 </r>
       <r>    -1.9894    30.6628   181.7174 </r>
       <r>    -1.8790    27.0940   184.7097 </r>
       <r>    -1.7685    19.2591   186.8367 </r>
       <r>    -1.6581     9.9792   187.9388 </r>
       <r>    -1.5476     1.1012   188.0604 </r>
       <r>    -1.4372    -0.3315   188.0238 </r>
       <r>    -1.3267     5.8318   188.6679 </r>
       <r>    -1.2163    13.1494   190.1201 </r>
       <r>    -1.1059    12.4858   191.4990 </r>
       <r>    -0.9954     5.1154   192.0640 </r>
       <r>    -0.8850     0.1425   192.0797 </r>
       <r>    -0.7745    -0.5377   192.0204 </r>
       <r>    -0.6641    -0.1630   192.0024 </r>
       <r>    -0.5537    -0.0201   192.0001 </r>
       <r>    -0.4432    -0.0012   192.0000 </r>
       <r>    -0.3328    -0.0000   192.0000 </r>
       <r>    -0.2223    -0.0000   192.0000 </r>
       <r>    -0.1119    -0.0000   192.0000 </r>
       <r>    -0.0015    -0.0000   192.0000 </r>
       <r>     0.1090    -0.0001   192.0000 </r>
       <r>     0.2194    -0.0019   191.9998 </r>
       <r>     0.3299    -0.0355   191.9959 </r>
       <r>     0.4403    -0.3346   191.9589 </r>
       <r>     0.5507    -1.5113   191.7920 </r>
       <r>     0.6612    -2.0779   191.5625 </r>
       <r>     0.7716     7.5860   192.4003 </r>
       <r>     0.8821    37.1168   196.4995 </r>
       <r>     0.9925    71.3972   204.3847 </r>
       <r>     1.1030    89.2351   214.2400 </r>
       <r>     1.2134    99.6106   225.2411 </r>
       <r>     1.3238    98.4453   236.1135 </r>
       <r>     1.4343    71.6234   244.0236 </r>
       <r>     1.5447    43.3513   248.8114 </r>
       <r>     1.6552    36.4593   252.8380 </r>
       <r>     1.7656    43.7219   257.6667 </r>
       <r>     1.8760    48.0447   262.9728 </r>
       <r>     1.9865    50.4330   268.5427 </r>
       <r>     2.0969    63.0173   275.5024 </r>
       <r>     2.2074    71.1870   283.3644 </r>
       <r>     2.3178    62.5186   290.2690 </r>
       <r>     2.4282    52.3121   296.0464 </r>
       <r>     2.5387    37.9120   300.2334 </r>
       <r>     2.6491    15.6845   301.9657 </r>
       <r>     2.7596     1.9301   302.1788 </r>
       <r>     2.8700     2.5567   302.4612 </r>
       <r>     2.9805     8.6425   303.4157 </r>
       <r>     3.0909    13.3573   304.8909 </r>
       <r>     3.2013    19.7449   307.0715 </r>
       <r>     3.3118    24.5753   309.7856 </r>
       <r>     3.4222    17.2427   311.6899 </r>
       <r>     3.5327     4.4858   312.1854 </r>
       <r>     3.6431    -0.8677   312.0895 </r>
       <r>     3.7535    -0.8747   311.9929 </r>
       <r>     3.8640    -0.5441   311.9328 </r>
       <r>     3.9744     0.9644   312.0393 </r>
       <r>     4.0849     5.5212   312.6491 </r>
       <r>     4.1953     7.9991   313.5325 </r>
       <r>     4.3057     4.0385   313.9786 </r>
       <r>     4.4162     0.1290   313.9928 </r>
       <r>     4.5266     1.9571   314.2089 </r>
       <r>     4.6371     6.6957   314.9484 </r>
       <r>     4.7475     7.6117   315.7891 </r>
       <r>     4.8580     6.9821   316.5602 </r>
       <r>     4.9684     7.8634   317.4286 </r>
       <r>     5.0788     5.0082   317.9818 </r>
       <r>     5.1893     0.7813   318.0680 </r>
       <r>     5.2997    -0.4144   318.0223 </r>
       <r>     5.4102    -0.1749   318.0029 </r>
       <r>     5.5206    -0.0250   318.0002 </r>
       <r>     5.6310    -0.0017   318.0000 </r>
       <r>     5.7415    -0.0004   318.0000 </r>
       <r>     5.8519    -0.0078   317.9991 </r>
       <r>     5.9624    -0.0789   317.9904 </r>
       <r>     6.0728    -0.3338   317.9535 </r>
       <r>     6.1832    -0.1066   317.9418 </r>
       <r>     6.2937     2.9609   318.2688 </r>
       <r>     6.4041     7.5433   319.1019 </r>
       <r>     6.5146     6.7841   319.8511 </r>
       <r>     6.6250     1.9795   320.0697 </r>
       <r>     6.7355    -0.3086   320.0356 </r>
       <r>     6.8459    -0.2674   320.0061 </r>
       <r>     6.9563    -0.0508   320.0005 </r>
       <r>     7.0668    -0.0043   320.0000 </r>
       <r>     7.1772    -0.0002   320.0000 </r>
       <r>     7.2877    -0.0000   320.0000 </r>
       <r>     7.3981    -0.0000   320.0000 </r>
       <r>     7.5085    -0.0000   320.0000 </r>
       <r>     7.6190    -0.0000   320.0000 </r>
       <r>     7.7294     0.0000   320.0000 </r>
       <r>     7.8399     0.0000   320.0000 </r>
       <r>     7.9503     0.0000   320.0000 </r>
       <r>     8.0607     0.0000   320.0000 </r>
       <r>     8.1712     0.0000   320.0000 </r>
       <r>     8.2816     0.0000   320.0000 </r>
       <r>     8.3921     0.0000   320.0000 </r>
      </set>
     </set>
    </array>
   </total>
  </dos>
 </calculation>
 <structure name="finalpos" >
  <crystal>
   <varray name="basis" >
    <v>       3.25262800       0.00000000       0.00000000 </v>
    <v>       0.00000000      20.54938400      -0.06012000 </v>
    <v>       0.00000000       0.00000000       6.79221100 </v>
   </varray>
   <i name="volume">    453.98799923 </i>
   <varray name="rec_basis" >
    <v>       0.30744370       0.00000000       0.00000000 </v>
    <v>       0.00000000       0.04866326       0.00000000 </v>
    <v>       0.00000000       0.00043073       0.14722746 </v>
   </varray>
  </crystal>
  <varray name="positions" >
   <v>       0.00000000       0.16671900       0.50983800 </v>
   <v>       0.00000000       0.83328100       0.50139100 </v>
   <v>       0.00000000       0.66671900       0.00139100 </v>
   <v>       0.00000000       0.33328100       0.00139100 </v>
   <v>       0.50000000       0.16602100       0.00471600 </v>
   <v>       0.49986200       0.83397900       0.00000400 </v>
   <v>       0.50000000       0.66602100       0.49728900 </v>
   <v>       0.50000000       0.33397900       0.50000400 </v>
   <v>       0.00000000       0.00000000       0.01216200 </v>
   <v>       0.00000000       0.50000000       0.51216200 </v>
   <v>       0.50000000       0.00000000       0.47240000 </v>
   <v>       0.50000000       0.50000000       0.97849700 </v>
   <v>       0.00000000       0.00000000       0.31436200 </v>
   <v>       0.00000000       0.50000000       0.81436200 </v>
   <v>       0.00000000       0.16816900       0.20329900 </v>
   <v>       0.00000000       0.83183100       0.20329900 </v>
   <v>       0.00000000       0.66816900       0.70329900 </v>
   <v>       0.00000000       0.33183100       0.70329900 </v>
   <v>       0.00000000       0.16838200       0.79934600 </v>
   <v>       0.00000000       0.83161800       0.79934600 </v>
   <v>       0.00966200       0.66838200       0.29934600 </v>
   <v>       0.99086200       0.33161800       0.29934600 </v>
   <v>       0.50000000       0.06837200       0.99633700 </v>
   <v>       0.50000000       0.93162800       0.99633700 </v>
   <v>       0.50000000       0.57442400       0.49633700 </v>
   <v>       0.50000000       0.43162800       0.49633700 </v>
   <v>       0.50000000       0.09818400       0.50567900 </v>
   <v>       0.50000000       0.90181600       0.50567900 </v>
   <v>       0.49581600       0.59818400       0.00567900 </v>
   <v>       0.50000000       0.40181600       0.00567900 </v>
   <v>       0.50000000       0.23406000       0.50152500 </v>
   <v>       0.50000000       0.76594000       0.50152500 </v>
   <v>       0.50000000       0.73406000       0.00152500 </v>
   <v>       0.50000000       0.26594000       0.00152500 </v>
   <v>       0.00000000       0.00000000       0.69474100 </v>
   <v>       0.00000000       0.50000000       0.19429400 </v>
  </varray>
 </structure>
</modeling>
