<?xml version="1.0" encoding="ISO-8859-1"?>
<modeling>
 <generator>
  <i name="program" type="string">vasp </i>
  <i name="version" type="string">5.3.5  </i>
  <i name="subversion" type="string">31Mar14 (build Aug 29 2014 19:41:47) complex                          parallel </i>
  <i name="platform" type="string">LinuxIFC </i>
  <i name="date" type="string">2019 04 11 </i>
  <i name="time" type="string">16:19:04 </i>
 </generator>
 <incar>
  <i type="string" name="SYSTEM"> Fe6OF11_var_27</i>
  <i type="int" name="ISTART">     0</i>
  <i type="string" name="PREC">normal</i>
  <i type="string" name="ALGO"> VeryFast</i>
  <i type="int" name="ISPIN">     1</i>
  <i type="int" name="ICHARG">     2</i>
  <i type="int" name="NELM">   300</i>
  <i type="int" name="ISYM">     0</i>
  <i type="logical" name="LWAVE"> F  </i>
  <i type="int" name="NELM">   300</i>
 </incar>
 <kpoints>
  <generation param="Gamma">
   <v type="int" name="divisions">       1        1        1 </v>
   <v name="usershift">      0.00000000       0.00000000       0.00000000 </v>
   <v name="genvec1">      1.00000000       0.00000000      -0.00000000 </v>
   <v name="genvec2">      0.00000000       1.00000000      -0.00000000 </v>
   <v name="genvec3">      0.00000000       0.00000000       1.00000000 </v>
   <v name="shift">      0.00000000       0.00000000       0.00000000 </v>
  </generation>
  <varray name="kpointlist" >
   <v>       0.00000000       0.00000000       0.00000000 </v>
  </varray>
  <varray name="weights" >
   <v>       1.00000000 </v>
  </varray>
 </kpoints>
 <parameters>
  <separator name="general" >
   <i type="string" name="SYSTEM">Fe6OF11_var_27</i>
   <i type="logical" name="LCOMPAT"> F  </i>
  </separator>
  <separator name="electronic" >
   <i type="string" name="PREC">normal</i>
   <i name="ENMAX">    400.00000000</i>
   <i name="ENAUG">    613.61400000</i>
   <i name="EDIFF">      0.00010000</i>
   <i type="int" name="IALGO">    48</i>
   <i type="int" name="IWAVPR">    10</i>
   <i type="int" name="NBANDS">   160</i>
   <i name="NELECT">    262.00000000</i>
   <i type="int" name="TURBO">     0</i>
   <i type="int" name="IRESTART">     0</i>
   <i type="int" name="NREBOOT">     0</i>
   <i type="int" name="NMIN">     0</i>
   <i name="EREF">      0.00000000</i>
   <separator name="electronic smearing" >
    <i type="int" name="ISMEAR">     1</i>
    <i name="SIGMA">      0.20000000</i>
    <i name="KSPACING">      0.50000000</i>
    <i type="logical" name="KGAMMA"> T  </i>
   </separator>
   <separator name="electronic projectors" >
    <i type="logical" name="LREAL"> F  </i>
    <v name="ROPT">      0.00000000      0.00000000      0.00000000</v>
    <i type="int" name="LMAXPAW">  -100</i>
    <i type="int" name="LMAXMIX">     2</i>
    <i type="logical" name="NLSPLINE"> F  </i>
   </separator>
   <separator name="electronic startup" >
    <i type="int" name="ISTART">     0</i>
    <i type="int" name="ICHARG">     2</i>
    <i type="int" name="INIWAV">     1</i>
   </separator>
   <separator name="electronic spin" >
    <i type="int" name="ISPIN">     1</i>
    <i type="logical" name="LNONCOLLINEAR"> F  </i>
    <v name="MAGMOM">      1.00000000      1.00000000      1.00000000      1.00000000      1.00000000      1.00000000      1.00000000      1.00000000      1.00000000      1.00000000      1.00000000      1.00000000      1.00000000      1.00000000      1.00000000      1.00000000      1.00000000      1.00000000      1.00000000      1.00000000
      1.00000000      1.00000000      1.00000000      1.00000000      1.00000000      1.00000000      1.00000000      1.00000000      1.00000000      1.00000000      1.00000000      1.00000000      1.00000000      1.00000000      1.00000000      1.00000000</v>
    <i name="NUPDOWN">     -1.00000000</i>
    <i type="logical" name="LSORBIT"> F  </i>
    <v name="SAXIS">      0.00000000      0.00000000      1.00000000</v>
    <i type="logical" name="LSPIRAL"> F  </i>
    <v name="QSPIRAL">      0.00000000      0.00000000      0.00000000</v>
    <i type="logical" name="LZEROZ"> F  </i>
   </separator>
   <separator name="electronic exchange-correlation" >
    <i type="logical" name="LASPH"> F  </i>
    <i type="logical" name="LMETAGGA"> F  </i>
   </separator>
   <separator name="electronic convergence" >
    <i type="int" name="NELM">   300</i>
    <i type="int" name="NELMDL">   -12</i>
    <i type="int" name="NELMIN">     2</i>
    <i name="ENINI">    400.00000000</i>
    <separator name="electronic convergence detail" >
     <i type="logical" name="LDIAG"> T  </i>
     <i type="logical" name="LSUBROT"> F  </i>
     <i name="WEIMIN">      0.00000000</i>
     <i name="EBREAK">      0.00000016</i>
     <i name="DEPER">      0.30000000</i>
     <i type="int" name="NRMM">     4</i>
     <i name="TIME">      0.40000000</i>
    </separator>
   </separator>
   <separator name="electronic mixer" >
    <i name="AMIX">      0.40000000</i>
    <i name="BMIX">      1.00000000</i>
    <i name="AMIN">      0.10000000</i>
    <i name="AMIX_MAG">      1.60000000</i>
    <i name="BMIX_MAG">      1.00000000</i>
    <separator name="electronic mixer details" >
     <i type="int" name="IMIX">     4</i>
     <i type="int" name="MAXMIX">   -45</i>
     <i name="WC">    100.00000000</i>
     <i type="int" name="INIMIX">     1</i>
     <i type="int" name="MIXPRE">     1</i>
     <i type="int" name="MREMOVE">     5</i>
    </separator>
   </separator>
   <separator name="electronic dipolcorrection" >
    <i type="logical" name="LDIPOL"> F  </i>
    <i type="logical" name="LMONO"> F  </i>
    <i type="int" name="IDIPOL">     0</i>
    <i name="EPSILON">      1.00000000</i>
    <v name="DIPOL">   -100.00000000   -100.00000000   -100.00000000</v>
    <i name="EFIELD">      0.00000000</i>
   </separator>
  </separator>
  <separator name="grids" >
   <i type="int" name="NGX">    16</i>
   <i type="int" name="NGY">   108</i>
   <i type="int" name="NGZ">    36</i>
   <i type="int" name="NGXF">    32</i>
   <i type="int" name="NGYF">   216</i>
   <i type="int" name="NGZF">    72</i>
   <i type="logical" name="ADDGRID"> F  </i>
  </separator>
  <separator name="ionic" >
   <i type="int" name="NSW">     0</i>
   <i type="int" name="IBRION">    -1</i>
   <i type="int" name="ISIF">     2</i>
   <i name="PSTRESS">      0.00000000</i>
   <i name="EDIFFG">      0.00100000</i>
   <i type="int" name="NFREE">     0</i>
   <i name="POTIM">      0.50000000</i>
   <i name="SMASS">     -3.00000000</i>
   <i name="SCALEE">      1.00000000</i>
  </separator>
  <separator name="ionic md" >
   <i name="TEBEG">      0.00010000</i>
   <i name="TEEND">      0.00010000</i>
   <i type="int" name="NBLOCK">     1</i>
   <i type="int" name="KBLOCK">     1</i>
   <i type="int" name="NPACO">   256</i>
   <i name="APACO">     16.00000000</i>
  </separator>
  <separator name="symmetry" >
   <i type="int" name="ISYM">     0</i>
   <i name="SYMPREC">      0.00001000</i>
  </separator>
  <separator name="dos" >
   <i type="logical" name="LORBIT"> F  </i>
   <v name="RWIGS">     -1.00000000     -1.00000000     -1.00000000</v>
   <i type="int" name="NEDOS">   301</i>
   <i name="EMIN">     10.00000000</i>
   <i name="EMAX">    -10.00000000</i>
   <i name="EFERMI">      0.00000000</i>
  </separator>
  <separator name="writing" >
   <i type="int" name="NWRITE">     2</i>
   <i type="logical" name="LWAVE"> F  </i>
   <i type="logical" name="LCHARG"> T  </i>
   <i type="logical" name="LPARD"> F  </i>
   <i type="logical" name="LVTOT"> F  </i>
   <i type="logical" name="LVHAR"> F  </i>
   <i type="logical" name="LELF"> F  </i>
   <i type="logical" name="LOPTICS"> F  </i>
   <v name="STM">      0.00000000      0.00000000      0.00000000      0.00000000      0.00000000      0.00000000      0.00000000</v>
  </separator>
  <separator name="performance" >
   <i type="int" name="NPAR">     4</i>
   <i type="int" name="NSIM">     4</i>
   <i type="int" name="NBLK">    -1</i>
   <i type="logical" name="LPLANE"> T  </i>
   <i type="logical" name="LSCALAPACK"> T  </i>
   <i type="logical" name="LSCAAWARE"> F  </i>
   <i type="logical" name="LSCALU"> F  </i>
   <i type="logical" name="LASYNC"> F  </i>
   <i type="logical" name="LORBITALREAL"> F  </i>
  </separator>
  <separator name="miscellaneous" >
   <i type="int" name="IDIOT">     3</i>
   <i type="logical" name="LMUSIC"> F  </i>
   <v name="POMASS">     55.84700000     16.00000000     18.99800000</v>
   <v name="DARWINR">      0.00000000      0.00000000      0.00000000</v>
   <v name="DARWINV">      1.00000000      1.00000000      1.00000000</v>
   <i type="logical" name="LCORR"> T  </i>
  </separator>
  <i type="logical" name="GGA_COMPAT"> T  </i>
  <i type="logical" name="LBERRY"> F  </i>
  <i type="int" name="ICORELEVEL">     0</i>
  <i type="logical" name="LDAU"> F  </i>
  <i type="int" name="I_CONSTRAINED_M">     0</i>
  <separator name="electronic exchange-correlation" >
   <i type="string" name="GGA">--</i>
   <i type="int" name="VOSKOWN">     0</i>
   <i type="logical" name="LHFCALC"> F  </i>
   <i type="string" name="PRECFOCK"></i>
   <i type="logical" name="LSYMGRAD"> F  </i>
   <i type="logical" name="LHFONE"> F  </i>
   <i type="logical" name="LRHFCALC"> F  </i>
   <i type="logical" name="LTHOMAS"> F  </i>
   <i type="logical" name="LMODELHF"> F  </i>
   <i name="ENCUT4O">     -1.00000000</i>
   <i type="int" name="EXXOEP">     0</i>
   <i type="int" name="FOURORBIT">     0</i>
   <i name="AEXX">      0.00000000</i>
   <i name="HFALPHA">      0.00000000</i>
   <i name="MCALPHA">      0.00000000</i>
   <i name="ALDAX">      1.00000000</i>
   <i name="AGGAX">      1.00000000</i>
   <i name="ALDAC">      1.00000000</i>
   <i name="AGGAC">      1.00000000</i>
   <i type="int" name="NKREDX">     1</i>
   <i type="int" name="NKREDY">     1</i>
   <i type="int" name="NKREDZ">     1</i>
   <i type="logical" name="SHIFTRED"> F  </i>
   <i type="logical" name="ODDONLY"> F  </i>
   <i type="logical" name="EVENONLY"> F  </i>
   <i type="int" name="LMAXFOCK">     0</i>
   <i type="int" name="NMAXFOCKAE">     0</i>
   <i type="logical" name="LFOCKAEDFT"> F  </i>
   <i name="HFSCREEN">      0.00000000</i>
   <i name="HFSCREENC">      0.00000000</i>
   <i type="int" name="NBANDSGWLOW">     0</i>
  </separator>
  <separator name="vdW DFT" >
   <i type="logical" name="LUSE_VDW"> F  </i>
   <i name="Zab_VDW">     -0.84910000</i>
   <i name="PARAM1">      0.12340000</i>
   <i name="PARAM2">      1.00000000</i>
   <i name="PARAM3">      0.00000000</i>
  </separator>
  <separator name="model GW" >
   <i type="int" name="MODEL_GW">     0</i>
   <i name="MODEL_EPS0">      7.56646665</i>
   <i name="MODEL_ALPHA">      1.00000000</i>
  </separator>
  <separator name="linear response parameters" >
   <i type="logical" name="LEPSILON"> F  </i>
   <i type="logical" name="LRPA"> F  </i>
   <i type="logical" name="LNABLA"> F  </i>
   <i type="logical" name="LVEL"> F  </i>
   <i type="int" name="KINTER">     0</i>
   <i name="CSHIFT">      0.10000000</i>
   <i name="OMEGAMAX">     -1.00000000</i>
   <i name="DEG_THRESHOLD">      0.00200000</i>
  </separator>
  <separator name="orbital magnetization" >
   <i type="logical" name="NUCIND"> F  </i>
   <v name="MAGPOS">      0.00000000      0.00000000      0.00000000</v>
   <i type="logical" name="LNICSALL"> T  </i>
   <i type="logical" name="ORBITALMAG"> F  </i>
   <i type="logical" name="LMAGBLOCH"> F  </i>
   <i type="logical" name="LCHIMAG"> F  </i>
   <i type="logical" name="LGAUGE"> T  </i>
   <i type="int" name="MAGATOM">     0</i>
   <v name="MAGDIPOL">      0.00000000      0.00000000      0.00000000</v>
   <v name="AVECCONST">      0.00000000      0.00000000      0.00000000</v>
  </separator>
  <separator name="response functions" >
   <i type="logical" name="LADDER"> F  </i>
   <i type="logical" name="LFXC"> F  </i>
   <i type="logical" name="LHARTREE"> T  </i>
   <i type="int" name="IBSE">     0</i>
   <i type="logical" name="LTCTE"> F  </i>
   <i type="logical" name="LTETE"> F  </i>
   <i type="logical" name="LTRIPLET"> F  </i>
   <i type="logical" name="LFXCEPS"> F  </i>
   <i type="logical" name="LFXHEG"> F  </i>
   <i type="logical" name="L2ORDER"> F  </i>
   <i type="logical" name="LUSEW"> F  </i>
   <i name="ENCUTGW">     -2.00000000</i>
   <i name="ENCUTGWSOFT">     -2.00000000</i>
   <i name="ENCUTLF">     -1.00000000</i>
   <i type="int" name="LMAXMP2">    -1</i>
   <i name="SCISSOR">      0.00000000</i>
   <i type="int" name="NOMEGA">     0</i>
   <i type="int" name="NOMEGAR">     0</i>
   <i type="int" name="NBANDSGW">    -1</i>
   <i type="int" name="NBANDSO">    -1</i>
   <i type="int" name="NBANDSV">    -1</i>
   <i type="int" name="NELM">   300</i>
   <i type="int" name="DIM">     3</i>
   <i type="int" name="ANTIRES">     0</i>
   <i name="OMEGAMAX">    -30.00000000</i>
   <i name="OMEGAMIN">    -30.00000000</i>
   <i name="OMEGATL">   -200.00000000</i>
   <i type="int" name="OMEGAGRID">     0</i>
   <i name="CSHIFT">     -0.10000000</i>
   <i type="logical" name="SELFENERGY"> F  </i>
   <i type="logical" name="LSPECTRAL"> F  </i>
   <i type="logical" name="ODDONLYGW"> F  </i>
   <i type="logical" name="EVENONLYGW"> F  </i>
   <i type="int" name="NKREDLFX">     1</i>
   <i type="int" name="NKREDLFY">     1</i>
   <i type="int" name="NKREDLFZ">     1</i>
   <i type="int" name="MAXMEM">  1800</i>
   <i type="int" name="TELESCOPE">     0</i>
   <i type="int" name="TAUPAR">     1</i>
  </separator>
  <separator name="External order field" >
   <i name="OFIELD_KAPPA">      0.00000000</i>
   <v name="OFIELD_K">      0.00000000      0.00000000      0.00000000</v>
   <i name="OFIELD_Q6_NEAR">      0.00000000</i>
   <i name="OFIELD_Q6_FAR">      0.00000000</i>
   <i name="OFIELD_A">      0.00000000</i>
  </separator>
 </parameters>
 <atominfo>
  <atoms>      36 </atoms>
  <types>       3 </types>
  <array name="atoms" >
   <dimension dim="1">ion</dimension>
   <field type="string">element</field>
   <field type="int">atomtype</field>
   <set>
    <rc><c>Fe</c><c>   1</c></rc>
    <rc><c>Fe</c><c>   1</c></rc>
    <rc><c>Fe</c><c>   1</c></rc>
    <rc><c>Fe</c><c>   1</c></rc>
    <rc><c>Fe</c><c>   1</c></rc>
    <rc><c>Fe</c><c>   1</c></rc>
    <rc><c>Fe</c><c>   1</c></rc>
    <rc><c>Fe</c><c>   1</c></rc>
    <rc><c>Fe</c><c>   1</c></rc>
    <rc><c>Fe</c><c>   1</c></rc>
    <rc><c>Fe</c><c>   1</c></rc>
    <rc><c>Fe</c><c>   1</c></rc>
    <rc><c>O </c><c>   2</c></rc>
    <rc><c>O </c><c>   2</c></rc>
    <rc><c>F </c><c>   3</c></rc>
    <rc><c>F </c><c>   3</c></rc>
    <rc><c>F </c><c>   3</c></rc>
    <rc><c>F </c><c>   3</c></rc>
    <rc><c>F </c><c>   3</c></rc>
    <rc><c>F </c><c>   3</c></rc>
    <rc><c>F </c><c>   3</c></rc>
    <rc><c>F </c><c>   3</c></rc>
    <rc><c>F </c><c>   3</c></rc>
    <rc><c>F </c><c>   3</c></rc>
    <rc><c>F </c><c>   3</c></rc>
    <rc><c>F </c><c>   3</c></rc>
    <rc><c>F </c><c>   3</c></rc>
    <rc><c>F </c><c>   3</c></rc>
    <rc><c>F </c><c>   3</c></rc>
    <rc><c>F </c><c>   3</c></rc>
    <rc><c>F </c><c>   3</c></rc>
    <rc><c>F </c><c>   3</c></rc>
    <rc><c>F </c><c>   3</c></rc>
    <rc><c>F </c><c>   3</c></rc>
    <rc><c>F </c><c>   3</c></rc>
    <rc><c>F </c><c>   3</c></rc>
   </set>
  </array>
  <array name="atomtypes" >
   <dimension dim="1">type</dimension>
   <field type="int">atomspertype</field>
   <field type="string">element</field>
   <field>mass</field>
   <field>valence</field>
   <field type="string">pseudopotential</field>
   <set>
    <rc><c>  12</c><c>Fe</c><c>     55.84700000</c><c>      8.00000000</c><c>  PAW_PBE Fe 06Sep2000                  </c></rc>
    <rc><c>   2</c><c>O </c><c>     16.00000000</c><c>      6.00000000</c><c>  PAW_PBE O 08Apr2002                   </c></rc>
    <rc><c>  22</c><c>F </c><c>     18.99800000</c><c>      7.00000000</c><c>  PAW_PBE F 08Apr2002                   </c></rc>
   </set>
  </array>
 </atominfo>
 <structure name="initialpos" >
  <crystal>
   <varray name="basis" >
    <v>       3.25262800       0.00000000       0.00000000 </v>
    <v>      -0.18206600      20.54938400       0.00000000 </v>
    <v>       0.00000000      -0.03201200       6.79221100 </v>
   </varray>
   <i name="volume">    453.98799923 </i>
   <varray name="rec_basis" >
    <v>       0.30744370       0.00272393       0.00001284 </v>
    <v>       0.00000000       0.04866326       0.00022935 </v>
    <v>       0.00000000       0.00000000       0.14722746 </v>
   </varray>
  </crystal>
  <varray name="positions" >
   <v>       0.00294400       0.16671900       0.50139100 </v>
   <v>       0.00000000       0.83328100       0.50139100 </v>
   <v>       0.00000000       0.66671900       0.00139100 </v>
   <v>       0.00000000       0.33328100       0.00139100 </v>
   <v>       0.50000000       0.16602100       0.00000400 </v>
   <v>       0.50000000       0.83397900       0.00000400 </v>
   <v>       0.50000000       0.66602100       0.50000400 </v>
   <v>       0.50000000       0.33397900       0.50967600 </v>
   <v>       0.00000000       0.00000000       0.01216200 </v>
   <v>       0.00000000       0.50000000       0.51216200 </v>
   <v>       0.50000000       0.00000000       0.47240000 </v>
   <v>       0.50852800       0.50000000       0.97240000 </v>
   <v>       0.00000000       0.00000000       0.31436200 </v>
   <v>       0.00000000       0.50000000       0.81436200 </v>
   <v>       0.00000000       0.16816900       0.20329900 </v>
   <v>       0.00000000       0.83183100       0.20329900 </v>
   <v>       0.99207900       0.66816900       0.70329900 </v>
   <v>       0.00000000       0.33183100       0.70329900 </v>
   <v>       0.00294300       0.16838200       0.79934600 </v>
   <v>       0.00000000       0.83704200       0.79934600 </v>
   <v>       0.00000000       0.66838200       0.29934600 </v>
   <v>       0.00000000       0.33161800       0.30666800 </v>
   <v>       0.50000000       0.06837200       0.00464600 </v>
   <v>       0.50982800       0.93162800       0.99633700 </v>
   <v>       0.50000000       0.56837200       0.49633700 </v>
   <v>       0.49429600       0.43162800       0.49633700 </v>
   <v>       0.50000000       0.09818400       0.50567900 </v>
   <v>       0.49638400       0.90181600       0.50567900 </v>
   <v>       0.50735400       0.59818400       0.00567900 </v>
   <v>       0.50000000       0.40181600       0.00567900 </v>
   <v>       0.49456800       0.23406000       0.50152500 </v>
   <v>       0.50000000       0.76594000       0.50152500 </v>
   <v>       0.50000000       0.73406000       0.00152500 </v>
   <v>       0.50000000       0.26594000       0.00152500 </v>
   <v>       0.00000000       0.00000000       0.69474100 </v>
   <v>       0.00000000       0.50000000       0.19474100 </v>
  </varray>
 </structure>
 <calculation>
  <scstep>
   <time name="diag">    0.43    0.52</time>
   <time name="diis">    0.34    0.62</time>
   <time name="orth">    0.10    0.19</time>
   <time name="total">    1.14    1.66</time>
   <energy>
    <i name="alphaZ">    943.57652748 </i>
    <i name="ewald"> -15989.45176231 </i>
    <i name="hartreedc">  -6695.17070042 </i>
    <i name="XCdc">    902.23892980 </i>
    <i name="pawpsdc">  19213.82102697 </i>
    <i name="pawaedc"> -19422.08171028 </i>
    <i name="eentropy">     -0.04555400 </i>
    <i name="bandstr">   1810.36353228 </i>
    <i name="atom">  22504.09828397 </i>
    <i name="e_fr_energy">   3267.34857348 </i>
    <i name="e_wo_entrp">   3267.39412748 </i>
    <i name="e_0_energy">   3267.36375814 </i>
   </energy>
  </scstep>
  <scstep>
   <time name="diag">    0.37    0.56</time>
   <time name="diis">    0.35    0.55</time>
   <time name="orth">    0.29    0.46</time>
   <time name="total">    1.03    1.60</time>
   <energy>
    <i name="e_fr_energy">   1015.48282142 </i>
    <i name="e_wo_entrp">   1015.39104205 </i>
    <i name="e_0_energy">   1015.45222830 </i>
   </energy>
  </scstep>
  <scstep>
   <time name="diag">    0.16    0.22</time>
   <time name="diis">    0.47    0.62</time>
   <time name="orth">    0.03    0.06</time>
   <time name="total">    0.66    0.90</time>
   <energy>
    <i name="e_fr_energy">    340.72385328 </i>
    <i name="e_wo_entrp">    340.74620311 </i>
    <i name="e_0_energy">    340.73130323 </i>
   </energy>
  </scstep>
  <scstep>
   <time name="diag">    0.34    0.57</time>
   <time name="diis">    0.34    0.54</time>
   <time name="orth">    0.04    0.08</time>
   <time name="total">    0.72    1.19</time>
   <energy>
    <i name="e_fr_energy">     58.13676269 </i>
    <i name="e_wo_entrp">     58.09543188 </i>
    <i name="e_0_energy">     58.12298575 </i>
   </energy>
  </scstep>
  <scstep>
   <time name="diag">    0.23    0.36</time>
   <time name="diis">    0.38    0.59</time>
   <time name="orth">    0.29    0.47</time>
   <time name="total">    0.91    1.42</time>
   <energy>
    <i name="e_fr_energy">    -97.19209934 </i>
    <i name="e_wo_entrp">    -97.29713793 </i>
    <i name="e_0_energy">    -97.22711221 </i>
   </energy>
  </scstep>
  <scstep>
   <time name="diag">    0.41    0.63</time>
   <time name="diis">    0.39    0.56</time>
   <time name="orth">    0.06    0.06</time>
   <time name="total">    0.86    1.25</time>
   <energy>
    <i name="e_fr_energy">   -164.98239127 </i>
    <i name="e_wo_entrp">   -165.12844516 </i>
    <i name="e_0_energy">   -165.03107590 </i>
   </energy>
  </scstep>
  <scstep>
   <time name="diag">    0.18    0.26</time>
   <time name="diis">    0.39    0.49</time>
   <time name="orth">    0.03    0.06</time>
   <time name="total">    0.61    0.81</time>
   <energy>
    <i name="e_fr_energy">   -197.22838972 </i>
    <i name="e_wo_entrp">   -197.42793474 </i>
    <i name="e_0_energy">   -197.29490473 </i>
   </energy>
  </scstep>
  <scstep>
   <time name="diag">    0.22    0.24</time>
   <time name="diis">    0.53    0.66</time>
   <time name="orth">    0.06    0.06</time>
   <time name="total">    0.82    0.97</time>
   <energy>
    <i name="e_fr_energy">   -209.66740185 </i>
    <i name="e_wo_entrp">   -209.90268026 </i>
    <i name="e_0_energy">   -209.74582798 </i>
   </energy>
  </scstep>
  <scstep>
   <time name="diag">    0.18    0.25</time>
   <time name="diis">    1.29    1.82</time>
   <time name="orth">    0.20    0.23</time>
   <time name="total">    1.67    2.31</time>
   <energy>
    <i name="e_fr_energy">   -222.08456558 </i>
    <i name="e_wo_entrp">   -222.32795855 </i>
    <i name="e_0_energy">   -222.16569657 </i>
   </energy>
  </scstep>
  <scstep>
   <time name="diag">    0.40    0.46</time>
   <time name="diis">    1.20    1.56</time>
   <time name="orth">    0.07    0.13</time>
   <time name="total">    1.67    2.16</time>
   <energy>
    <i name="e_fr_energy">   -222.39122314 </i>
    <i name="e_wo_entrp">   -222.55486127 </i>
    <i name="e_0_energy">   -222.44576918 </i>
   </energy>
  </scstep>
  <scstep>
   <time name="diag">    0.22    0.37</time>
   <time name="diis">    1.14    1.53</time>
   <time name="orth">    0.05    0.07</time>
   <time name="total">    1.41    1.97</time>
   <energy>
    <i name="e_fr_energy">   -222.68279415 </i>
    <i name="e_wo_entrp">   -222.84618862 </i>
    <i name="e_0_energy">   -222.73725897 </i>
   </energy>
  </scstep>
  <scstep>
   <time name="diag">    0.17    0.19</time>
   <time name="diis">    0.90    1.33</time>
   <time name="orth">    0.02    0.04</time>
   <time name="total">    1.19    1.66</time>
   <energy>
    <i name="e_fr_energy">   -222.78160244 </i>
    <i name="e_wo_entrp">   -222.93920188 </i>
    <i name="e_0_energy">   -222.83413559 </i>
   </energy>
  </scstep>
  <scstep>
   <time name="diag">    0.20    0.25</time>
   <time name="diis">    0.81    1.18</time>
   <time name="orth">    0.09    0.11</time>
   <time name="total">    1.29    1.77</time>
   <energy>
    <i name="e_fr_energy">   -208.23661253 </i>
    <i name="e_wo_entrp">   -208.37508540 </i>
    <i name="e_0_energy">   -208.28277015 </i>
   </energy>
  </scstep>
  <scstep>
   <time name="diag">    0.26    0.32</time>
   <time name="diis">    0.75    1.03</time>
   <time name="orth">    0.05    0.05</time>
   <time name="total">    1.41    1.87</time>
   <energy>
    <i name="e_fr_energy">   -245.76364382 </i>
    <i name="e_wo_entrp">   -245.60560904 </i>
    <i name="e_0_energy">   -245.71096556 </i>
   </energy>
  </scstep>
  <scstep>
   <time name="diag">    0.51    0.83</time>
   <time name="diis">    0.70    1.19</time>
   <time name="orth">    0.13    0.24</time>
   <time name="total">    1.63    2.83</time>
   <energy>
    <i name="e_fr_energy">   -260.48107504 </i>
    <i name="e_wo_entrp">   -260.55900643 </i>
    <i name="e_0_energy">   -260.50705217 </i>
   </energy>
  </scstep>
  <scstep>
   <time name="diag">    0.18    0.26</time>
   <time name="diis">    0.66    1.00</time>
   <time name="orth">    0.08    0.12</time>
   <time name="total">    1.12    1.65</time>
   <energy>
    <i name="e_fr_energy">   -214.39248892 </i>
    <i name="e_wo_entrp">   -214.47660754 </i>
    <i name="e_0_energy">   -214.42052846 </i>
   </energy>
  </scstep>
  <scstep>
   <time name="diag">    0.24    0.37</time>
   <time name="diis">    0.84    1.04</time>
   <time name="orth">    0.27    0.49</time>
   <time name="total">    1.76    2.48</time>
   <energy>
    <i name="e_fr_energy">   -244.94455306 </i>
    <i name="e_wo_entrp">   -245.03038865 </i>
    <i name="e_0_energy">   -244.97316493 </i>
   </energy>
  </scstep>
  <scstep>
   <time name="diag">    0.18    0.21</time>
   <time name="diis">    0.99    1.19</time>
   <time name="orth">    0.02    0.04</time>
   <time name="total">    1.51    1.88</time>
   <energy>
    <i name="e_fr_energy">   -252.14589125 </i>
    <i name="e_wo_entrp">   -252.15380649 </i>
    <i name="e_0_energy">   -252.14852966 </i>
   </energy>
  </scstep>
  <scstep>
   <time name="diag">    0.20    0.25</time>
   <time name="diis">    0.70    1.23</time>
   <time name="orth">    0.16    0.17</time>
   <time name="total">    1.31    2.02</time>
   <energy>
    <i name="e_fr_energy">   -221.93183417 </i>
    <i name="e_wo_entrp">   -221.94717405 </i>
    <i name="e_0_energy">   -221.93694747 </i>
   </energy>
  </scstep>
  <scstep>
   <time name="diag">    0.20    0.34</time>
   <time name="diis">    0.81    1.24</time>
   <time name="orth">    0.28    0.37</time>
   <time name="total">    1.47    2.18</time>
   <energy>
    <i name="e_fr_energy">   -225.55130580 </i>
    <i name="e_wo_entrp">   -225.56345677 </i>
    <i name="e_0_energy">   -225.55535613 </i>
   </energy>
  </scstep>
  <scstep>
   <time name="diag">    0.42    0.58</time>
   <time name="diis">    0.72    1.13</time>
   <time name="orth">    0.09    0.12</time>
   <time name="total">    1.50    2.12</time>
   <energy>
    <i name="e_fr_energy">   -210.93957311 </i>
    <i name="e_wo_entrp">   -210.78600162 </i>
    <i name="e_0_energy">   -210.88838261 </i>
   </energy>
  </scstep>
  <scstep>
   <time name="diag">    0.42    0.50</time>
   <time name="diis">    0.90    1.13</time>
   <time name="orth">    0.07    0.15</time>
   <time name="total">    1.62    2.04</time>
   <energy>
    <i name="e_fr_energy">   -202.85093091 </i>
    <i name="e_wo_entrp">   -202.87544480 </i>
    <i name="e_0_energy">   -202.85910221 </i>
   </energy>
  </scstep>
  <scstep>
   <time name="diag">    0.26    0.32</time>
   <time name="diis">    0.76    1.19</time>
   <time name="orth">    0.07    0.08</time>
   <time name="total">    1.35    2.00</time>
   <energy>
    <i name="e_fr_energy">   -209.37714632 </i>
    <i name="e_wo_entrp">   -209.12426778 </i>
    <i name="e_0_energy">   -209.29285347 </i>
   </energy>
  </scstep>
  <scstep>
   <time name="diag">    0.19    0.23</time>
   <time name="diis">    0.77    1.15</time>
   <time name="orth">    0.15    0.19</time>
   <time name="total">    1.30    1.87</time>
   <energy>
    <i name="e_fr_energy">   -196.47499127 </i>
    <i name="e_wo_entrp">   -196.50190559 </i>
    <i name="e_0_energy">   -196.48396271 </i>
   </energy>
  </scstep>
  <scstep>
   <time name="diag">    0.28    0.35</time>
   <time name="diis">    0.79    1.21</time>
   <time name="orth">    0.04    0.07</time>
   <time name="total">    1.29    1.92</time>
   <energy>
    <i name="e_fr_energy">   -195.03542767 </i>
    <i name="e_wo_entrp">   -195.02496601 </i>
    <i name="e_0_energy">   -195.03194045 </i>
   </energy>
  </scstep>
  <scstep>
   <time name="diag">    0.33    0.33</time>
   <time name="diis">    0.81    1.17</time>
   <time name="orth">    0.16    0.21</time>
   <time name="total">    1.60    2.07</time>
   <energy>
    <i name="e_fr_energy">   -192.52636767 </i>
    <i name="e_wo_entrp">   -192.51105482 </i>
    <i name="e_0_energy">   -192.52126339 </i>
   </energy>
  </scstep>
  <scstep>
   <time name="diag">    0.32    0.48</time>
   <time name="diis">    0.76    1.03</time>
   <time name="orth">    0.16    0.21</time>
   <time name="total">    1.57    2.27</time>
   <energy>
    <i name="e_fr_energy">   -190.34878628 </i>
    <i name="e_wo_entrp">   -190.39014747 </i>
    <i name="e_0_energy">   -190.36257335 </i>
   </energy>
  </scstep>
  <scstep>
   <time name="diag">    0.25    0.38</time>
   <time name="diis">    0.74    1.22</time>
   <time name="orth">    0.10    0.15</time>
   <time name="total">    1.43    2.26</time>
   <energy>
    <i name="e_fr_energy">   -190.56522198 </i>
    <i name="e_wo_entrp">   -190.63293610 </i>
    <i name="e_0_energy">   -190.58779335 </i>
   </energy>
  </scstep>
  <scstep>
   <time name="diag">    0.18    0.34</time>
   <time name="diis">    0.73    1.04</time>
   <time name="orth">    0.11    0.16</time>
   <time name="total">    1.17    1.72</time>
   <energy>
    <i name="e_fr_energy">   -189.66328045 </i>
    <i name="e_wo_entrp">   -189.67494146 </i>
    <i name="e_0_energy">   -189.66716745 </i>
   </energy>
  </scstep>
  <scstep>
   <time name="diag">    0.38    0.59</time>
   <time name="diis">    0.74    1.05</time>
   <time name="orth">    0.17    0.28</time>
   <time name="total">    1.53    2.22</time>
   <energy>
    <i name="e_fr_energy">   -189.55119666 </i>
    <i name="e_wo_entrp">   -189.54008465 </i>
    <i name="e_0_energy">   -189.54749266 </i>
   </energy>
  </scstep>
  <scstep>
   <time name="diag">    0.34    0.35</time>
   <time name="diis">    0.91    1.03</time>
   <time name="orth">    0.04    0.04</time>
   <time name="total">    1.57    1.70</time>
   <energy>
    <i name="e_fr_energy">   -190.22622837 </i>
    <i name="e_wo_entrp">   -190.34099996 </i>
    <i name="e_0_energy">   -190.26448557 </i>
   </energy>
  </scstep>
  <scstep>
   <time name="diag">    0.19    0.30</time>
   <time name="diis">    0.92    1.14</time>
   <time name="orth">    0.13    0.15</time>
   <time name="total">    1.56    2.17</time>
   <energy>
    <i name="e_fr_energy">   -189.67027266 </i>
    <i name="e_wo_entrp">   -189.64637584 </i>
    <i name="e_0_energy">   -189.66230705 </i>
   </energy>
  </scstep>
  <scstep>
   <time name="diag">    0.12    0.23</time>
   <time name="diis">    0.78    1.09</time>
   <time name="orth">    0.23    0.41</time>
   <time name="total">    1.43    2.20</time>
   <energy>
    <i name="e_fr_energy">   -189.52267729 </i>
    <i name="e_wo_entrp">   -189.51684239 </i>
    <i name="e_0_energy">   -189.52073232 </i>
   </energy>
  </scstep>
  <scstep>
   <time name="diag">    0.18    0.24</time>
   <time name="diis">    1.03    1.24</time>
   <time name="orth">    0.04    0.04</time>
   <time name="total">    1.55    1.91</time>
   <energy>
    <i name="e_fr_energy">   -189.59464049 </i>
    <i name="e_wo_entrp">   -189.52165898 </i>
    <i name="e_0_energy">   -189.57031332 </i>
   </energy>
  </scstep>
  <scstep>
   <time name="diag">    0.32    0.37</time>
   <time name="diis">    0.81    1.08</time>
   <time name="orth">    0.12    0.15</time>
   <time name="total">    1.63    2.06</time>
   <energy>
    <i name="e_fr_energy">   -189.46972816 </i>
    <i name="e_wo_entrp">   -189.45926835 </i>
    <i name="e_0_energy">   -189.46624156 </i>
   </energy>
  </scstep>
  <scstep>
   <time name="diag">    0.29    0.40</time>
   <time name="diis">    0.85    1.12</time>
   <time name="orth">    0.16    0.26</time>
   <time name="total">    1.64    2.27</time>
   <energy>
    <i name="e_fr_energy">   -189.36539796 </i>
    <i name="e_wo_entrp">   -189.36637832 </i>
    <i name="e_0_energy">   -189.36572474 </i>
   </energy>
  </scstep>
  <scstep>
   <time name="diag">    0.15    0.21</time>
   <time name="diis">    0.83    1.15</time>
   <time name="orth">    0.07    0.07</time>
   <time name="total">    1.25    1.71</time>
   <energy>
    <i name="e_fr_energy">   -189.38145917 </i>
    <i name="e_wo_entrp">   -189.36561039 </i>
    <i name="e_0_energy">   -189.37617624 </i>
   </energy>
  </scstep>
  <scstep>
   <time name="diag">    0.18    0.18</time>
   <time name="diis">    0.81    1.01</time>
   <time name="orth">    0.03    0.04</time>
   <time name="total">    1.27    1.53</time>
   <energy>
    <i name="e_fr_energy">   -189.37402421 </i>
    <i name="e_wo_entrp">   -189.35030764 </i>
    <i name="e_0_energy">   -189.36611868 </i>
   </energy>
  </scstep>
  <scstep>
   <time name="diag">    0.23    0.30</time>
   <time name="diis">    0.79    1.20</time>
   <time name="orth">    0.19    0.23</time>
   <time name="total">    1.48    2.05</time>
   <energy>
    <i name="e_fr_energy">   -189.35863485 </i>
    <i name="e_wo_entrp">   -189.34177931 </i>
    <i name="e_0_energy">   -189.35301634 </i>
   </energy>
  </scstep>
  <scstep>
   <time name="diag">    0.15    0.25</time>
   <time name="diis">    0.80    1.08</time>
   <time name="orth">    0.03    0.06</time>
   <time name="total">    1.27    1.76</time>
   <energy>
    <i name="e_fr_energy">   -189.34723633 </i>
    <i name="e_wo_entrp">   -189.33235475 </i>
    <i name="e_0_energy">   -189.34227580 </i>
   </energy>
  </scstep>
  <scstep>
   <time name="diag">    0.14    0.15</time>
   <time name="diis">    0.82    1.13</time>
   <time name="orth">    0.02    0.04</time>
   <time name="total">    1.29    1.76</time>
   <energy>
    <i name="e_fr_energy">   -189.34266414 </i>
    <i name="e_wo_entrp">   -189.33278460 </i>
    <i name="e_0_energy">   -189.33937096 </i>
   </energy>
  </scstep>
  <scstep>
   <time name="diag">    0.19    0.28</time>
   <time name="diis">    0.66    1.14</time>
   <time name="orth">    0.14    0.27</time>
   <time name="total">    1.28    2.05</time>
   <energy>
    <i name="e_fr_energy">   -189.33494877 </i>
    <i name="e_wo_entrp">   -189.33282539 </i>
    <i name="e_0_energy">   -189.33424098 </i>
   </energy>
  </scstep>
  <scstep>
   <time name="diag">    0.48    0.61</time>
   <time name="diis">    0.57    0.92</time>
   <time name="orth">    0.06    0.12</time>
   <time name="total">    1.52    2.14</time>
   <energy>
    <i name="e_fr_energy">   -189.33199405 </i>
    <i name="e_wo_entrp">   -189.33302683 </i>
    <i name="e_0_energy">   -189.33233831 </i>
   </energy>
  </scstep>
  <scstep>
   <time name="diag">    0.25    0.33</time>
   <time name="diis">    0.66    0.78</time>
   <time name="orth">    0.15    0.23</time>
   <time name="total">    1.34    1.78</time>
   <energy>
    <i name="e_fr_energy">   -189.33071289 </i>
    <i name="e_wo_entrp">   -189.33436938 </i>
    <i name="e_0_energy">   -189.33193172 </i>
   </energy>
  </scstep>
  <scstep>
   <time name="diag">    0.22    0.32</time>
   <time name="diis">    0.54    0.73</time>
   <time name="orth">    0.09    0.09</time>
   <time name="total">    1.04    1.47</time>
   <energy>
    <i name="e_fr_energy">   -189.32893721 </i>
    <i name="e_wo_entrp">   -189.33524762 </i>
    <i name="e_0_energy">   -189.33104068 </i>
   </energy>
  </scstep>
  <scstep>
   <time name="diag">    0.19    0.22</time>
   <time name="diis">    0.66    0.91</time>
   <time name="orth">    0.12    0.18</time>
   <time name="total">    1.20    1.68</time>
   <energy>
    <i name="e_fr_energy">   -189.32718000 </i>
    <i name="e_wo_entrp">   -189.33788808 </i>
    <i name="e_0_energy">   -189.33074936 </i>
   </energy>
  </scstep>
  <scstep>
   <time name="diag">    0.28    0.38</time>
   <time name="diis">    0.41    0.67</time>
   <time name="orth">    0.03    0.06</time>
   <time name="total">    0.86    1.31</time>
   <energy>
    <i name="alphaZ">    943.57652748 </i>
    <i name="ewald"> -15989.45176231 </i>
    <i name="hartreedc">  -6854.29426568 </i>
    <i name="XCdc">    918.55076137 </i>
    <i name="pawpsdc">  22420.15192846 </i>
    <i name="pawaedc"> -22630.51727891 </i>
    <i name="eentropy">      0.01144798 </i>
    <i name="bandstr">  -1501.45275677 </i>
    <i name="atom">  22504.09828397 </i>
    <i name="e_fr_energy">   -189.32711441 </i>
    <i name="e_wo_entrp">   -189.33856238 </i>
    <i name="e_0_energy">   -189.33093040 </i>
   </energy>
  </scstep>
  <structure>
   <crystal>
    <varray name="basis" >
     <v>       3.25262800       0.00000000       0.00000000 </v>
     <v>      -0.18206600      20.54938400       0.00000000 </v>
     <v>       0.00000000      -0.03201200       6.79221100 </v>
    </varray>
    <i name="volume">    453.98799923 </i>
    <varray name="rec_basis" >
     <v>       0.30744370       0.00272393       0.00001284 </v>
     <v>       0.00000000       0.04866326       0.00022935 </v>
     <v>       0.00000000       0.00000000       0.14722746 </v>
    </varray>
   </crystal>
   <varray name="positions" >
    <v>       0.00294400       0.16671900       0.50139100 </v>
    <v>       0.00000000       0.83328100       0.50139100 </v>
    <v>       0.00000000       0.66671900       0.00139100 </v>
    <v>       0.00000000       0.33328100       0.00139100 </v>
    <v>       0.50000000       0.16602100       0.00000400 </v>
    <v>       0.50000000       0.83397900       0.00000400 </v>
    <v>       0.50000000       0.66602100       0.50000400 </v>
    <v>       0.50000000       0.33397900       0.50967600 </v>
    <v>       0.00000000       0.00000000       0.01216200 </v>
    <v>       0.00000000       0.50000000       0.51216200 </v>
    <v>       0.50000000       0.00000000       0.47240000 </v>
    <v>       0.50852800       0.50000000       0.97240000 </v>
    <v>       0.00000000       0.00000000       0.31436200 </v>
    <v>       0.00000000       0.50000000       0.81436200 </v>
    <v>       0.00000000       0.16816900       0.20329900 </v>
    <v>       0.00000000       0.83183100       0.20329900 </v>
    <v>       0.99207900       0.66816900       0.70329900 </v>
    <v>       0.00000000       0.33183100       0.70329900 </v>
    <v>       0.00294300       0.16838200       0.79934600 </v>
    <v>       0.00000000       0.83704200       0.79934600 </v>
    <v>       0.00000000       0.66838200       0.29934600 </v>
    <v>       0.00000000       0.33161800       0.30666800 </v>
    <v>       0.50000000       0.06837200       0.00464600 </v>
    <v>       0.50982800       0.93162800       0.99633700 </v>
    <v>       0.50000000       0.56837200       0.49633700 </v>
    <v>       0.49429600       0.43162800       0.49633700 </v>
    <v>       0.50000000       0.09818400       0.50567900 </v>
    <v>       0.49638400       0.90181600       0.50567900 </v>
    <v>       0.50735400       0.59818400       0.00567900 </v>
    <v>       0.50000000       0.40181600       0.00567900 </v>
    <v>       0.49456800       0.23406000       0.50152500 </v>
    <v>       0.50000000       0.76594000       0.50152500 </v>
    <v>       0.50000000       0.73406000       0.00152500 </v>
    <v>       0.50000000       0.26594000       0.00152500 </v>
    <v>       0.00000000       0.00000000       0.69474100 </v>
    <v>       0.00000000       0.50000000       0.19474100 </v>
   </varray>
  </structure>
  <varray name="forces" >
   <v>      -0.10932328      -0.09662433       0.05719579 </v>
   <v>      -0.03325432       0.35841689       0.07304137 </v>
   <v>      -0.04767505      -0.12096992       0.08222773 </v>
   <v>      -0.01353376       0.09955136       0.28381073 </v>
   <v>       0.00746956       0.27265927       0.15926002 </v>
   <v>       0.08377193       0.08167615       0.06958824 </v>
   <v>      -0.10743046       0.26196925       0.06012984 </v>
   <v>      -0.09106344      -0.27626924      -0.57897696 </v>
   <v>       0.08997297      -0.02897326       1.11285823 </v>
   <v>      -0.13262734      -0.00222032       0.97629280 </v>
   <v>      -0.02799010      -0.00514570       0.08868820 </v>
   <v>      -0.24266884       0.00702140       0.13261083 </v>
   <v>      -0.00226389      -0.01090245      -1.07901107 </v>
   <v>       0.19791887      -0.00502496      -1.12526752 </v>
   <v>       0.01089076      -0.18630803      -0.22667904 </v>
   <v>       0.00615543      -0.00728004      -0.21677359 </v>
   <v>       0.15597219      -0.17881799      -0.19665932 </v>
   <v>      -0.00820819       0.19529859       0.06306372 </v>
   <v>      -0.02089657      -0.19392332       0.15778420 </v>
   <v>       0.00539707      -0.25400575       0.14959811 </v>
   <v>       0.07611681      -0.18317001       0.13836087 </v>
   <v>      -0.01210787       0.18204638       0.16323477 </v>
   <v>      -0.05375515      -0.51845284       0.01208471 </v>
   <v>      -0.13272367       0.54885036       0.20912584 </v>
   <v>       0.00198232      -0.51643168       0.20927745 </v>
   <v>       0.12425953       0.52681398       0.30095078 </v>
   <v>       0.07363961       0.85221797      -0.16922857 </v>
   <v>       0.03913024      -0.85156074      -0.22417712 </v>
   <v>      -0.04119204       0.83322284      -0.18283113 </v>
   <v>       0.03087054      -0.84915370      -0.20714510 </v>
   <v>       0.11022248      -0.41248427       0.06257475 </v>
   <v>       0.02500019       0.39570689       0.00778221 </v>
   <v>      -0.06668276      -0.36344700      -0.05242214 </v>
   <v>       0.02068585       0.41268220      -0.05465035 </v>
   <v>       0.00007320       0.02934813      -0.12023881 </v>
   <v>       0.08386720       0.00368391      -0.13548046 </v>
  </varray>
  <varray name="stress" >
   <v>    -245.97036451       0.26650825       0.07157213 </v>
   <v>       0.26650652    -257.50621569       0.83963913 </v>
   <v>       0.07157145       0.83963913    -281.34256183 </v>
  </varray>
  <energy>
   <i name="e_fr_energy">   -189.32711441 </i>
   <i name="e_wo_entrp">   -189.33093040 </i>
   <i name="e_0_energy">      0.01144798 </i>
  </energy>
  <time name="totalsc">   65.25   91.22</time>
  <eigenvalues>
   <array>
    <dimension dim="1">band</dimension>
    <dimension dim="2">kpoint</dimension>
    <dimension dim="3">spin</dimension>
    <field>eigene</field>
    <field>occ</field>
    <set>
     <set comment="spin 1">
      <set comment="kpoint 1">
       <r>  -22.7787    1.0000 </r>
       <r>  -22.7233    1.0000 </r>
       <r>  -22.6238    1.0000 </r>
       <r>  -22.5754    1.0000 </r>
       <r>  -22.3896    1.0000 </r>
       <r>  -22.3709    1.0000 </r>
       <r>  -22.3548    1.0000 </r>
       <r>  -22.3324    1.0000 </r>
       <r>  -22.2856    1.0000 </r>
       <r>  -22.2744    1.0000 </r>
       <r>  -22.2677    1.0000 </r>
       <r>  -22.2423    1.0000 </r>
       <r>  -22.2335    1.0000 </r>
       <r>  -22.1859    1.0000 </r>
       <r>  -22.1761    1.0000 </r>
       <r>  -22.1528    1.0000 </r>
       <r>  -22.1487    1.0000 </r>
       <r>  -22.1231    1.0000 </r>
       <r>  -22.1051    1.0000 </r>
       <r>  -22.0703    1.0000 </r>
       <r>  -20.9553    1.0000 </r>
       <r>  -20.9374    1.0000 </r>
       <r>  -16.5462    1.0000 </r>
       <r>  -16.5404    1.0000 </r>
       <r>   -6.1815    1.0000 </r>
       <r>   -6.0851    1.0000 </r>
       <r>   -5.9239    1.0000 </r>
       <r>   -5.8470    1.0000 </r>
       <r>   -5.6576    1.0000 </r>
       <r>   -5.4657    1.0000 </r>
       <r>   -5.4218    1.0000 </r>
       <r>   -5.3658    1.0000 </r>
       <r>   -5.2615    1.0000 </r>
       <r>   -5.0910    1.0000 </r>
       <r>   -4.6195    1.0000 </r>
       <r>   -4.5804    1.0000 </r>
       <r>   -4.5331    1.0000 </r>
       <r>   -4.5008    1.0000 </r>
       <r>   -4.4922    1.0000 </r>
       <r>   -4.4094    1.0000 </r>
       <r>   -4.3551    1.0000 </r>
       <r>   -4.3322    1.0000 </r>
       <r>   -4.3218    1.0000 </r>
       <r>   -4.3184    1.0000 </r>
       <r>   -4.3120    1.0000 </r>
       <r>   -4.2749    1.0000 </r>
       <r>   -4.2577    1.0000 </r>
       <r>   -4.2398    1.0000 </r>
       <r>   -4.2243    1.0000 </r>
       <r>   -4.1977    1.0000 </r>
       <r>   -4.1757    1.0000 </r>
       <r>   -4.1691    1.0000 </r>
       <r>   -4.1498    1.0000 </r>
       <r>   -4.1478    1.0000 </r>
       <r>   -4.1414    1.0000 </r>
       <r>   -4.1283    1.0000 </r>
       <r>   -4.0814    1.0000 </r>
       <r>   -4.0799    1.0000 </r>
       <r>   -4.0354    1.0000 </r>
       <r>   -4.0024    1.0000 </r>
       <r>   -3.9474    1.0000 </r>
       <r>   -3.8697    1.0000 </r>
       <r>   -3.8580    1.0000 </r>
       <r>   -3.6984    1.0000 </r>
       <r>   -3.6042    1.0000 </r>
       <r>   -3.5900    1.0000 </r>
       <r>   -3.5819    1.0000 </r>
       <r>   -3.5238    1.0000 </r>
       <r>   -3.5050    1.0000 </r>
       <r>   -3.4899    1.0000 </r>
       <r>   -3.4628    1.0000 </r>
       <r>   -3.3799    1.0000 </r>
       <r>   -3.2825    1.0000 </r>
       <r>   -3.2691    1.0000 </r>
       <r>   -3.2470    1.0000 </r>
       <r>   -3.1887    1.0000 </r>
       <r>   -3.1861    1.0000 </r>
       <r>   -3.1791    1.0000 </r>
       <r>   -3.1775    1.0000 </r>
       <r>   -3.1398    1.0000 </r>
       <r>   -3.0644    1.0000 </r>
       <r>   -3.0135    1.0000 </r>
       <r>   -2.9964    1.0000 </r>
       <r>   -2.9590    1.0000 </r>
       <r>   -2.8656    1.0000 </r>
       <r>   -2.8158    1.0000 </r>
       <r>   -2.6551    1.0000 </r>
       <r>   -2.5956    1.0000 </r>
       <r>   -2.0381    1.0000 </r>
       <r>   -2.0282    1.0000 </r>
       <r>   -2.0024    1.0000 </r>
       <r>   -1.9627    1.0000 </r>
       <r>   -1.8115    1.0000 </r>
       <r>   -1.8078    1.0000 </r>
       <r>   -1.2786    1.0000 </r>
       <r>   -1.2625    1.0000 </r>
       <r>    0.8343    1.0000 </r>
       <r>    0.8705    1.0000 </r>
       <r>    0.9262    1.0000 </r>
       <r>    0.9433    1.0000 </r>
       <r>    0.9650    1.0000 </r>
       <r>    0.9738    1.0000 </r>
       <r>    1.0047    1.0000 </r>
       <r>    1.0114    1.0000 </r>
       <r>    1.0285    1.0000 </r>
       <r>    1.0504    1.0000 </r>
       <r>    1.0830    1.0000 </r>
       <r>    1.0976    1.0000 </r>
       <r>    1.1792    1.0000 </r>
       <r>    1.1879    1.0000 </r>
       <r>    1.1941    1.0000 </r>
       <r>    1.2173    1.0000 </r>
       <r>    1.2458    1.0001 </r>
       <r>    1.2481    1.0001 </r>
       <r>    1.2552    1.0001 </r>
       <r>    1.2638    1.0001 </r>
       <r>    1.2691    1.0001 </r>
       <r>    1.3105    1.0004 </r>
       <r>    1.3177    1.0005 </r>
       <r>    1.3362    1.0007 </r>
       <r>    1.3687    1.0015 </r>
       <r>    1.3785    1.0019 </r>
       <r>    1.3972    1.0028 </r>
       <r>    1.5004    1.0154 </r>
       <r>    1.5525    1.0270 </r>
       <r>    1.6130    1.0354 </r>
       <r>    1.6854    1.0018 </r>
       <r>    1.7075    0.9730 </r>
       <r>    1.7591    0.8600 </r>
       <r>    1.7957    0.7407 </r>
       <r>    1.8342    0.5896 </r>
       <r>    1.8508    0.5196 </r>
       <r>    1.9050    0.2972 </r>
       <r>    1.9746    0.0819 </r>
       <r>    1.9759    0.0789 </r>
       <r>    2.0623   -0.0283 </r>
       <r>    2.1126   -0.0349 </r>
       <r>    2.1153   -0.0347 </r>
       <r>    2.1380   -0.0313 </r>
       <r>    2.1519   -0.0284 </r>
       <r>    2.1682   -0.0247 </r>
       <r>    2.1781   -0.0224 </r>
       <r>    2.2338   -0.0112 </r>
       <r>    2.2614   -0.0073 </r>
       <r>    2.2874   -0.0046 </r>
       <r>    2.4070   -0.0003 </r>
       <r>    2.4079   -0.0003 </r>
       <r>    2.4088   -0.0003 </r>
       <r>    2.4535   -0.0001 </r>
       <r>    2.4618   -0.0001 </r>
       <r>    2.5740   -0.0000 </r>
       <r>    2.9251   -0.0000 </r>
       <r>    3.1077   -0.0000 </r>
       <r>    3.2295   -0.0000 </r>
       <r>    3.2920   -0.0000 </r>
       <r>    3.2986   -0.0000 </r>
       <r>    4.1156   -0.0000 </r>
       <r>    4.5935   -0.0000 </r>
       <r>    4.9474   -0.0000 </r>
       <r>    6.3716   -0.0000 </r>
      </set>
     </set>
    </set>
   </array>
  </eigenvalues>
  <separator name="orbital magnetization" >
   <v name="MAGDIPOLOUT">      0.00000000      0.00000000      0.00000000</v>
  </separator>
  <dos>
   <i name="efermi">      1.85546430 </i>
   <total>
    <array>
     <dimension dim="1">gridpoints</dimension>
     <dimension dim="2">spin</dimension>
     <field>energy</field>
     <field>total</field>
     <field>integrated</field>
     <set>
      <set comment="spin 1">
       <r>   -24.7787     0.0000     0.0000 </r>
       <r>   -24.6682     0.0000     0.0000 </r>
       <r>   -24.5577     0.0000     0.0000 </r>
       <r>   -24.4472    -0.0000    -0.0000 </r>
       <r>   -24.3367    -0.0000    -0.0000 </r>
       <r>   -24.2262    -0.0000    -0.0000 </r>
       <r>   -24.1157    -0.0000    -0.0000 </r>
       <r>   -24.0052    -0.0000    -0.0000 </r>
       <r>   -23.8947    -0.0000    -0.0000 </r>
       <r>   -23.7842    -0.0000    -0.0000 </r>
       <r>   -23.6736    -0.0000    -0.0000 </r>
       <r>   -23.5631    -0.0000    -0.0000 </r>
       <r>   -23.4526    -0.0002    -0.0000 </r>
       <r>   -23.3421    -0.0053    -0.0006 </r>
       <r>   -23.2316    -0.0696    -0.0083 </r>
       <r>   -23.1211    -0.4300    -0.0558 </r>
       <r>   -23.0106    -0.9318    -0.1588 </r>
       <r>   -22.9001     1.6436     0.0228 </r>
       <r>   -22.7896    11.3137     1.2730 </r>
       <r>   -22.6791    21.3501     3.6322 </r>
       <r>   -22.5686    21.3709     5.9937 </r>
       <r>   -22.4581    23.3319     8.5719 </r>
       <r>   -22.3476    49.8135    14.0764 </r>
       <r>   -22.2371    85.3344    23.5059 </r>
       <r>   -22.1266    88.9636    33.3364 </r>
       <r>   -22.0161    52.6799    39.1576 </r>
       <r>   -21.9056    12.6795    40.5587 </r>
       <r>   -21.7951    -2.4541    40.2875 </r>
       <r>   -21.6846    -2.0932    40.0562 </r>
       <r>   -21.5741    -0.4610    40.0053 </r>
       <r>   -21.4636    -0.0742    39.9971 </r>
       <r>   -21.3531    -0.2349    39.9711 </r>
       <r>   -21.2426    -0.7676    39.8863 </r>
       <r>   -21.1321     0.4728    39.9386 </r>
       <r>   -21.0216     8.0136    40.8241 </r>
       <r>   -20.9111    15.9302    42.5844 </r>
       <r>   -20.8006    11.6724    43.8742 </r>
       <r>   -20.6901     2.3970    44.1391 </r>
       <r>   -20.5796    -0.7795    44.0529 </r>
       <r>   -20.4691    -0.4093    44.0077 </r>
       <r>   -20.3586    -0.0648    44.0005 </r>
       <r>   -20.2481    -0.0047    44.0000 </r>
       <r>   -20.1376    -0.0002    44.0000 </r>
       <r>   -20.0271    -0.0000    44.0000 </r>
       <r>   -19.9166    -0.0000    44.0000 </r>
       <r>   -19.8061    -0.0000    44.0000 </r>
       <r>   -19.6956    -0.0000    44.0000 </r>
       <r>   -19.5851     0.0000    44.0000 </r>
       <r>   -19.4746     0.0000    44.0000 </r>
       <r>   -19.3641     0.0000    44.0000 </r>
       <r>   -19.2536     0.0000    44.0000 </r>
       <r>   -19.1431     0.0000    44.0000 </r>
       <r>   -19.0326     0.0000    44.0000 </r>
       <r>   -18.9221     0.0000    44.0000 </r>
       <r>   -18.8116     0.0000    44.0000 </r>
       <r>   -18.7011     0.0000    44.0000 </r>
       <r>   -18.5906     0.0000    44.0000 </r>
       <r>   -18.4801     0.0000    44.0000 </r>
       <r>   -18.3696     0.0000    44.0000 </r>
       <r>   -18.2591     0.0000    44.0000 </r>
       <r>   -18.1486    -0.0000    44.0000 </r>
       <r>   -18.0381    -0.0000    44.0000 </r>
       <r>   -17.9276    -0.0000    44.0000 </r>
       <r>   -17.8171    -0.0000    44.0000 </r>
       <r>   -17.7066    -0.0000    44.0000 </r>
       <r>   -17.5961    -0.0000    44.0000 </r>
       <r>   -17.4856    -0.0000    44.0000 </r>
       <r>   -17.3751    -0.0000    44.0000 </r>
       <r>   -17.2646    -0.0001    44.0000 </r>
       <r>   -17.1541    -0.0024    43.9997 </r>
       <r>   -17.0436    -0.0392    43.9954 </r>
       <r>   -16.9331    -0.2987    43.9624 </r>
       <r>   -16.8226    -0.8140    43.8724 </r>
       <r>   -16.7121     1.1418    43.9986 </r>
       <r>   -16.6016     9.5950    45.0589 </r>
       <r>   -16.4911    16.2193    46.8511 </r>
       <r>   -16.3806    10.1567    47.9734 </r>
       <r>   -16.2701     1.4320    48.1317 </r>
       <r>   -16.1596    -0.8183    48.0412 </r>
       <r>   -16.0491    -0.3256    48.0053 </r>
       <r>   -15.9386    -0.0448    48.0003 </r>
       <r>   -15.8281    -0.0029    48.0000 </r>
       <r>   -15.7176    -0.0001    48.0000 </r>
       <r>   -15.6071    -0.0000    48.0000 </r>
       <r>   -15.4966    -0.0000    48.0000 </r>
       <r>   -15.3861    -0.0000    48.0000 </r>
       <r>   -15.2756    -0.0000    48.0000 </r>
       <r>   -15.1651     0.0000    48.0000 </r>
       <r>   -15.0546     0.0000    48.0000 </r>
       <r>   -14.9441     0.0000    48.0000 </r>
       <r>   -14.8336     0.0000    48.0000 </r>
       <r>   -14.7231     0.0000    48.0000 </r>
       <r>   -14.6126     0.0000    48.0000 </r>
       <r>   -14.5021     0.0000    48.0000 </r>
       <r>   -14.3916     0.0000    48.0000 </r>
       <r>   -14.2811     0.0000    48.0000 </r>
       <r>   -14.1706     0.0000    48.0000 </r>
       <r>   -14.0601     0.0000    48.0000 </r>
       <r>   -13.9496     0.0000    48.0000 </r>
       <r>   -13.8391     0.0000    48.0000 </r>
       <r>   -13.7286     0.0000    48.0000 </r>
       <r>   -13.6181     0.0000    48.0000 </r>
       <r>   -13.5076     0.0000    48.0000 </r>
       <r>   -13.3971     0.0000    48.0000 </r>
       <r>   -13.2866     0.0000    48.0000 </r>
       <r>   -13.1761     0.0000    48.0000 </r>
       <r>   -13.0656     0.0000    48.0000 </r>
       <r>   -12.9551     0.0000    48.0000 </r>
       <r>   -12.8446     0.0000    48.0000 </r>
       <r>   -12.7341     0.0000    48.0000 </r>
       <r>   -12.6236     0.0000    48.0000 </r>
       <r>   -12.5131     0.0000    48.0000 </r>
       <r>   -12.4026     0.0000    48.0000 </r>
       <r>   -12.2920     0.0000    48.0000 </r>
       <r>   -12.1815     0.0000    48.0000 </r>
       <r>   -12.0710     0.0000    48.0000 </r>
       <r>   -11.9605     0.0000    48.0000 </r>
       <r>   -11.8500     0.0000    48.0000 </r>
       <r>   -11.7395     0.0000    48.0000 </r>
       <r>   -11.6290     0.0000    48.0000 </r>
       <r>   -11.5185     0.0000    48.0000 </r>
       <r>   -11.4080     0.0000    48.0000 </r>
       <r>   -11.2975     0.0000    48.0000 </r>
       <r>   -11.1870     0.0000    48.0000 </r>
       <r>   -11.0765     0.0000    48.0000 </r>
       <r>   -10.9660     0.0000    48.0000 </r>
       <r>   -10.8555     0.0000    48.0000 </r>
       <r>   -10.7450     0.0000    48.0000 </r>
       <r>   -10.6345     0.0000    48.0000 </r>
       <r>   -10.5240     0.0000    48.0000 </r>
       <r>   -10.4135     0.0000    48.0000 </r>
       <r>   -10.3030     0.0000    48.0000 </r>
       <r>   -10.1925     0.0000    48.0000 </r>
       <r>   -10.0820     0.0000    48.0000 </r>
       <r>    -9.9715     0.0000    48.0000 </r>
       <r>    -9.8610     0.0000    48.0000 </r>
       <r>    -9.7505     0.0000    48.0000 </r>
       <r>    -9.6400     0.0000    48.0000 </r>
       <r>    -9.5295     0.0000    48.0000 </r>
       <r>    -9.4190     0.0000    48.0000 </r>
       <r>    -9.3085     0.0000    48.0000 </r>
       <r>    -9.1980     0.0000    48.0000 </r>
       <r>    -9.0875     0.0000    48.0000 </r>
       <r>    -8.9770     0.0000    48.0000 </r>
       <r>    -8.8665     0.0000    48.0000 </r>
       <r>    -8.7560     0.0000    48.0000 </r>
       <r>    -8.6455     0.0000    48.0000 </r>
       <r>    -8.5350     0.0000    48.0000 </r>
       <r>    -8.4245     0.0000    48.0000 </r>
       <r>    -8.3140     0.0000    48.0000 </r>
       <r>    -8.2035     0.0000    48.0000 </r>
       <r>    -8.0930     0.0000    48.0000 </r>
       <r>    -7.9825     0.0000    48.0000 </r>
       <r>    -7.8720    -0.0000    48.0000 </r>
       <r>    -7.7615    -0.0000    48.0000 </r>
       <r>    -7.6510    -0.0000    48.0000 </r>
       <r>    -7.5405    -0.0000    48.0000 </r>
       <r>    -7.4300    -0.0000    48.0000 </r>
       <r>    -7.3195    -0.0000    48.0000 </r>
       <r>    -7.2090    -0.0000    48.0000 </r>
       <r>    -7.0985    -0.0000    48.0000 </r>
       <r>    -6.9880    -0.0000    48.0000 </r>
       <r>    -6.8775    -0.0001    48.0000 </r>
       <r>    -6.7670    -0.0026    47.9997 </r>
       <r>    -6.6565    -0.0370    47.9956 </r>
       <r>    -6.5460    -0.2550    47.9674 </r>
       <r>    -6.4355    -0.6559    47.8950 </r>
       <r>    -6.3250     0.7516    47.9780 </r>
       <r>    -6.2145     7.0635    48.7585 </r>
       <r>    -6.1040    14.3577    50.3451 </r>
       <r>    -5.9935    16.7373    52.1946 </r>
       <r>    -5.8830    16.8918    54.0611 </r>
       <r>    -5.7725    14.7158    55.6872 </r>
       <r>    -5.6620    10.8402    56.8851 </r>
       <r>    -5.5515    12.0802    58.2200 </r>
       <r>    -5.4410    20.4763    60.4826 </r>
       <r>    -5.3305    25.6171    63.3133 </r>
       <r>    -5.2200    20.1071    65.5352 </r>
       <r>    -5.1095    12.7932    66.9488 </r>
       <r>    -4.9990     7.3625    67.7624 </r>
       <r>    -4.8885     1.1490    67.8894 </r>
       <r>    -4.7780    -1.1105    67.7667 </r>
       <r>    -4.6675     8.6422    68.7216 </r>
       <r>    -4.5570    28.8943    71.9145 </r>
       <r>    -4.4465    48.5738    77.2819 </r>
       <r>    -4.3360    73.7754    85.4342 </r>
       <r>    -4.2255   104.8454    97.0197 </r>
       <r>    -4.1150   110.9856   109.2837 </r>
       <r>    -4.0045    80.8689   118.2198 </r>
       <r>    -3.8940    43.8488   123.0652 </r>
       <r>    -3.7835    23.3881   125.6496 </r>
       <r>    -3.6730    25.3888   128.4551 </r>
       <r>    -3.5625    44.7116   133.3957 </r>
       <r>    -3.4520    52.9951   139.2518 </r>
       <r>    -3.3415    47.4192   144.4916 </r>
       <r>    -3.2310    55.9365   150.6727 </r>
       <r>    -3.1205    65.7862   157.9421 </r>
       <r>    -3.0100    55.5858   164.0844 </r>
       <r>    -2.8995    38.7038   168.3612 </r>
       <r>    -2.7890    25.6138   171.1915 </r>
       <r>    -2.6785    19.0170   173.2929 </r>
       <r>    -2.5680    15.9923   175.0601 </r>
       <r>    -2.4575     8.3106   175.9784 </r>
       <r>    -2.3470    -0.0473   175.9732 </r>
       <r>    -2.2365    -1.7573   175.7790 </r>
       <r>    -2.1260     8.0451   176.6680 </r>
       <r>    -2.0155    26.9544   179.6465 </r>
       <r>    -1.9050    35.0028   183.5144 </r>
       <r>    -1.7945    26.5868   186.4522 </r>
       <r>    -1.6840    12.9313   187.8811 </r>
       <r>    -1.5735     1.7294   188.0722 </r>
       <r>    -1.4630    -0.7279   187.9918 </r>
       <r>    -1.3525     6.8506   188.7488 </r>
       <r>    -1.2420    15.6506   190.4782 </r>
       <r>    -1.1315    12.2336   191.8300 </r>
       <r>    -1.0210     2.8105   192.1406 </r>
       <r>    -0.9104    -0.7490   192.0578 </r>
       <r>    -0.7999    -0.4437   192.0088 </r>
       <r>    -0.6894    -0.0739   192.0006 </r>
       <r>    -0.5789    -0.0056   192.0000 </r>
       <r>    -0.4684    -0.0002   192.0000 </r>
       <r>    -0.3579    -0.0000   192.0000 </r>
       <r>    -0.2474    -0.0000   192.0000 </r>
       <r>    -0.1369    -0.0000   192.0000 </r>
       <r>    -0.0264    -0.0000   192.0000 </r>
       <r>     0.0841    -0.0000   192.0000 </r>
       <r>     0.1946    -0.0007   191.9999 </r>
       <r>     0.3051    -0.0164   191.9981 </r>
       <r>     0.4156    -0.1880   191.9773 </r>
       <r>     0.5261    -1.0724   191.8588 </r>
       <r>     0.6366    -2.3959   191.5941 </r>
       <r>     0.7471     2.8881   191.9132 </r>
       <r>     0.8576    27.3345   194.9337 </r>
       <r>     0.9681    63.7159   201.9744 </r>
       <r>     1.0786    85.1674   211.3855 </r>
       <r>     1.1891    96.2648   222.0228 </r>
       <r>     1.2996   105.5899   233.6906 </r>
       <r>     1.4101    85.2464   243.1104 </r>
       <r>     1.5206    47.3889   248.3469 </r>
       <r>     1.6311    32.9258   251.9853 </r>
       <r>     1.7416    40.9748   256.5130 </r>
       <r>     1.8521    48.1723   261.8361 </r>
       <r>     1.9626    48.1031   267.1515 </r>
       <r>     2.0731    55.8328   273.3211 </r>
       <r>     2.1836    68.8065   280.9243 </r>
       <r>     2.2941    65.5489   288.1675 </r>
       <r>     2.4046    55.1777   294.2647 </r>
       <r>     2.5151    44.0975   299.1375 </r>
       <r>     2.6256    22.8089   301.6579 </r>
       <r>     2.7361     4.8139   302.1899 </r>
       <r>     2.8466     2.0394   302.4152 </r>
       <r>     2.9571     7.0895   303.1986 </r>
       <r>     3.0676    11.5763   304.4778 </r>
       <r>     3.1781    18.7856   306.5536 </r>
       <r>     3.2886    25.8957   309.4151 </r>
       <r>     3.3991    19.6508   311.5866 </r>
       <r>     3.5096     5.5789   312.2030 </r>
       <r>     3.6201    -0.8817   312.1056 </r>
       <r>     3.7306    -0.9600   311.9995 </r>
       <r>     3.8411    -0.5726   311.9363 </r>
       <r>     3.9516     0.6670   312.0100 </r>
       <r>     4.0621     5.0081   312.5634 </r>
       <r>     4.1726     8.0227   313.4499 </r>
       <r>     4.2831     4.5024   313.9474 </r>
       <r>     4.3936     0.5978   314.0135 </r>
       <r>     4.5041     2.8858   314.3323 </r>
       <r>     4.6146     7.3035   315.1394 </r>
       <r>     4.7251     6.1813   315.8224 </r>
       <r>     4.8356     4.0440   316.2693 </r>
       <r>     4.9461     6.8004   317.0207 </r>
       <r>     5.0566     6.9947   317.7937 </r>
       <r>     5.1671     2.4600   318.0655 </r>
       <r>     5.2776    -0.2175   318.0415 </r>
       <r>     5.3881    -0.3043   318.0078 </r>
       <r>     5.4986    -0.0648   318.0007 </r>
       <r>     5.6091    -0.0059   318.0000 </r>
       <r>     5.7196    -0.0006   318.0000 </r>
       <r>     5.8301    -0.0075   317.9991 </r>
       <r>     5.9406    -0.0770   317.9906 </r>
       <r>     6.0511    -0.3304   317.9541 </r>
       <r>     6.1616    -0.1200   317.9408 </r>
       <r>     6.2721     2.9104   318.2625 </r>
       <r>     6.3826     7.5143   319.0928 </r>
       <r>     6.4931     6.8220   319.8466 </r>
       <r>     6.6036     2.0169   320.0695 </r>
       <r>     6.7141    -0.3030   320.0360 </r>
       <r>     6.8246    -0.2698   320.0062 </r>
       <r>     6.9351    -0.0516   320.0005 </r>
       <r>     7.0456    -0.0043   320.0000 </r>
       <r>     7.1561    -0.0002   320.0000 </r>
       <r>     7.2666    -0.0000   320.0000 </r>
       <r>     7.3771    -0.0000   320.0000 </r>
       <r>     7.4876    -0.0000   320.0000 </r>
       <r>     7.5981    -0.0000   320.0000 </r>
       <r>     7.7086     0.0000   320.0000 </r>
       <r>     7.8191     0.0000   320.0000 </r>
       <r>     7.9296     0.0000   320.0000 </r>
       <r>     8.0401     0.0000   320.0000 </r>
       <r>     8.1506     0.0000   320.0000 </r>
       <r>     8.2611     0.0000   320.0000 </r>
       <r>     8.3716     0.0000   320.0000 </r>
      </set>
     </set>
    </array>
   </total>
  </dos>
 </calculation>
 <structure name="finalpos" >
  <crystal>
   <varray name="basis" >
    <v>       3.25262800       0.00000000       0.00000000 </v>
    <v>      -0.18206600      20.54938400       0.00000000 </v>
    <v>       0.00000000      -0.03201200       6.79221100 </v>
   </varray>
   <i name="volume">    453.98799923 </i>
   <varray name="rec_basis" >
    <v>       0.30744370       0.00272393       0.00001284 </v>
    <v>       0.00000000       0.04866326       0.00022935 </v>
    <v>       0.00000000       0.00000000       0.14722746 </v>
   </varray>
  </crystal>
  <varray name="positions" >
   <v>       0.00294400       0.16671900       0.50139100 </v>
   <v>       0.00000000       0.83328100       0.50139100 </v>
   <v>       0.00000000       0.66671900       0.00139100 </v>
   <v>       0.00000000       0.33328100       0.00139100 </v>
   <v>       0.50000000       0.16602100       0.00000400 </v>
   <v>       0.50000000       0.83397900       0.00000400 </v>
   <v>       0.50000000       0.66602100       0.50000400 </v>
   <v>       0.50000000       0.33397900       0.50967600 </v>
   <v>       0.00000000       0.00000000       0.01216200 </v>
   <v>       0.00000000       0.50000000       0.51216200 </v>
   <v>       0.50000000       0.00000000       0.47240000 </v>
   <v>       0.50852800       0.50000000       0.97240000 </v>
   <v>       0.00000000       0.00000000       0.31436200 </v>
   <v>       0.00000000       0.50000000       0.81436200 </v>
   <v>       0.00000000       0.16816900       0.20329900 </v>
   <v>       0.00000000       0.83183100       0.20329900 </v>
   <v>       0.99207900       0.66816900       0.70329900 </v>
   <v>       0.00000000       0.33183100       0.70329900 </v>
   <v>       0.00294300       0.16838200       0.79934600 </v>
   <v>       0.00000000       0.83704200       0.79934600 </v>
   <v>       0.00000000       0.66838200       0.29934600 </v>
   <v>       0.00000000       0.33161800       0.30666800 </v>
   <v>       0.50000000       0.06837200       0.00464600 </v>
   <v>       0.50982800       0.93162800       0.99633700 </v>
   <v>       0.50000000       0.56837200       0.49633700 </v>
   <v>       0.49429600       0.43162800       0.49633700 </v>
   <v>       0.50000000       0.09818400       0.50567900 </v>
   <v>       0.49638400       0.90181600       0.50567900 </v>
   <v>       0.50735400       0.59818400       0.00567900 </v>
   <v>       0.50000000       0.40181600       0.00567900 </v>
   <v>       0.49456800       0.23406000       0.50152500 </v>
   <v>       0.50000000       0.76594000       0.50152500 </v>
   <v>       0.50000000       0.73406000       0.00152500 </v>
   <v>       0.50000000       0.26594000       0.00152500 </v>
   <v>       0.00000000       0.00000000       0.69474100 </v>
   <v>       0.00000000       0.50000000       0.19474100 </v>
  </varray>
 </structure>
</modeling>
