<?xml version="1.0" encoding="ISO-8859-1"?>
<modeling>
 <generator>
  <i name="program" type="string">vasp </i>
  <i name="version" type="string">5.3.5  </i>
  <i name="subversion" type="string">31Mar14 (build Aug 29 2014 19:41:47) complex                          parallel </i>
  <i name="platform" type="string">LinuxIFC </i>
  <i name="date" type="string">2019 04 11 </i>
  <i name="time" type="string">16:06:23 </i>
 </generator>
 <incar>
  <i type="string" name="SYSTEM"> Fe6OF11_var_20</i>
  <i type="int" name="ISTART">     0</i>
  <i type="string" name="PREC">normal</i>
  <i type="string" name="ALGO"> VeryFast</i>
  <i type="int" name="ISPIN">     1</i>
  <i type="int" name="ICHARG">     2</i>
  <i type="int" name="NELM">   300</i>
  <i type="int" name="ISYM">     0</i>
  <i type="logical" name="LWAVE"> F  </i>
  <i type="int" name="NELM">   300</i>
 </incar>
 <kpoints>
  <generation param="Gamma">
   <v type="int" name="divisions">       1        1        1 </v>
   <v name="usershift">      0.00000000       0.00000000       0.00000000 </v>
   <v name="genvec1">      1.00000000       0.00000000       0.00000000 </v>
   <v name="genvec2">      0.00000000       1.00000000       0.00000000 </v>
   <v name="genvec3">      0.00000000       0.00000000       1.00000000 </v>
   <v name="shift">      0.00000000       0.00000000       0.00000000 </v>
  </generation>
  <varray name="kpointlist" >
   <v>       0.00000000       0.00000000       0.00000000 </v>
  </varray>
  <varray name="weights" >
   <v>       1.00000000 </v>
  </varray>
 </kpoints>
 <parameters>
  <separator name="general" >
   <i type="string" name="SYSTEM">Fe6OF11_var_20</i>
   <i type="logical" name="LCOMPAT"> F  </i>
  </separator>
  <separator name="electronic" >
   <i type="string" name="PREC">normal</i>
   <i name="ENMAX">    400.00000000</i>
   <i name="ENAUG">    613.61400000</i>
   <i name="EDIFF">      0.00010000</i>
   <i type="int" name="IALGO">    48</i>
   <i type="int" name="IWAVPR">    10</i>
   <i type="int" name="NBANDS">   160</i>
   <i name="NELECT">    262.00000000</i>
   <i type="int" name="TURBO">     0</i>
   <i type="int" name="IRESTART">     0</i>
   <i type="int" name="NREBOOT">     0</i>
   <i type="int" name="NMIN">     0</i>
   <i name="EREF">      0.00000000</i>
   <separator name="electronic smearing" >
    <i type="int" name="ISMEAR">     1</i>
    <i name="SIGMA">      0.20000000</i>
    <i name="KSPACING">      0.50000000</i>
    <i type="logical" name="KGAMMA"> T  </i>
   </separator>
   <separator name="electronic projectors" >
    <i type="logical" name="LREAL"> F  </i>
    <v name="ROPT">      0.00000000      0.00000000      0.00000000</v>
    <i type="int" name="LMAXPAW">  -100</i>
    <i type="int" name="LMAXMIX">     2</i>
    <i type="logical" name="NLSPLINE"> F  </i>
   </separator>
   <separator name="electronic startup" >
    <i type="int" name="ISTART">     0</i>
    <i type="int" name="ICHARG">     2</i>
    <i type="int" name="INIWAV">     1</i>
   </separator>
   <separator name="electronic spin" >
    <i type="int" name="ISPIN">     1</i>
    <i type="logical" name="LNONCOLLINEAR"> F  </i>
    <v name="MAGMOM">      1.00000000      1.00000000      1.00000000      1.00000000      1.00000000      1.00000000      1.00000000      1.00000000      1.00000000      1.00000000      1.00000000      1.00000000      1.00000000      1.00000000      1.00000000      1.00000000      1.00000000      1.00000000      1.00000000      1.00000000
      1.00000000      1.00000000      1.00000000      1.00000000      1.00000000      1.00000000      1.00000000      1.00000000      1.00000000      1.00000000      1.00000000      1.00000000      1.00000000      1.00000000      1.00000000      1.00000000</v>
    <i name="NUPDOWN">     -1.00000000</i>
    <i type="logical" name="LSORBIT"> F  </i>
    <v name="SAXIS">      0.00000000      0.00000000      1.00000000</v>
    <i type="logical" name="LSPIRAL"> F  </i>
    <v name="QSPIRAL">      0.00000000      0.00000000      0.00000000</v>
    <i type="logical" name="LZEROZ"> F  </i>
   </separator>
   <separator name="electronic exchange-correlation" >
    <i type="logical" name="LASPH"> F  </i>
    <i type="logical" name="LMETAGGA"> F  </i>
   </separator>
   <separator name="electronic convergence" >
    <i type="int" name="NELM">   300</i>
    <i type="int" name="NELMDL">   -12</i>
    <i type="int" name="NELMIN">     2</i>
    <i name="ENINI">    400.00000000</i>
    <separator name="electronic convergence detail" >
     <i type="logical" name="LDIAG"> T  </i>
     <i type="logical" name="LSUBROT"> F  </i>
     <i name="WEIMIN">      0.00000000</i>
     <i name="EBREAK">      0.00000016</i>
     <i name="DEPER">      0.30000000</i>
     <i type="int" name="NRMM">     4</i>
     <i name="TIME">      0.40000000</i>
    </separator>
   </separator>
   <separator name="electronic mixer" >
    <i name="AMIX">      0.40000000</i>
    <i name="BMIX">      1.00000000</i>
    <i name="AMIN">      0.10000000</i>
    <i name="AMIX_MAG">      1.60000000</i>
    <i name="BMIX_MAG">      1.00000000</i>
    <separator name="electronic mixer details" >
     <i type="int" name="IMIX">     4</i>
     <i type="int" name="MAXMIX">   -45</i>
     <i name="WC">    100.00000000</i>
     <i type="int" name="INIMIX">     1</i>
     <i type="int" name="MIXPRE">     1</i>
     <i type="int" name="MREMOVE">     5</i>
    </separator>
   </separator>
   <separator name="electronic dipolcorrection" >
    <i type="logical" name="LDIPOL"> F  </i>
    <i type="logical" name="LMONO"> F  </i>
    <i type="int" name="IDIPOL">     0</i>
    <i name="EPSILON">      1.00000000</i>
    <v name="DIPOL">   -100.00000000   -100.00000000   -100.00000000</v>
    <i name="EFIELD">      0.00000000</i>
   </separator>
  </separator>
  <separator name="grids" >
   <i type="int" name="NGX">    16</i>
   <i type="int" name="NGY">   108</i>
   <i type="int" name="NGZ">    36</i>
   <i type="int" name="NGXF">    32</i>
   <i type="int" name="NGYF">   216</i>
   <i type="int" name="NGZF">    72</i>
   <i type="logical" name="ADDGRID"> F  </i>
  </separator>
  <separator name="ionic" >
   <i type="int" name="NSW">     0</i>
   <i type="int" name="IBRION">    -1</i>
   <i type="int" name="ISIF">     2</i>
   <i name="PSTRESS">      0.00000000</i>
   <i name="EDIFFG">      0.00100000</i>
   <i type="int" name="NFREE">     0</i>
   <i name="POTIM">      0.50000000</i>
   <i name="SMASS">     -3.00000000</i>
   <i name="SCALEE">      1.00000000</i>
  </separator>
  <separator name="ionic md" >
   <i name="TEBEG">      0.00010000</i>
   <i name="TEEND">      0.00010000</i>
   <i type="int" name="NBLOCK">     1</i>
   <i type="int" name="KBLOCK">     1</i>
   <i type="int" name="NPACO">   256</i>
   <i name="APACO">     16.00000000</i>
  </separator>
  <separator name="symmetry" >
   <i type="int" name="ISYM">     0</i>
   <i name="SYMPREC">      0.00001000</i>
  </separator>
  <separator name="dos" >
   <i type="logical" name="LORBIT"> F  </i>
   <v name="RWIGS">     -1.00000000     -1.00000000     -1.00000000</v>
   <i type="int" name="NEDOS">   301</i>
   <i name="EMIN">     10.00000000</i>
   <i name="EMAX">    -10.00000000</i>
   <i name="EFERMI">      0.00000000</i>
  </separator>
  <separator name="writing" >
   <i type="int" name="NWRITE">     2</i>
   <i type="logical" name="LWAVE"> F  </i>
   <i type="logical" name="LCHARG"> T  </i>
   <i type="logical" name="LPARD"> F  </i>
   <i type="logical" name="LVTOT"> F  </i>
   <i type="logical" name="LVHAR"> F  </i>
   <i type="logical" name="LELF"> F  </i>
   <i type="logical" name="LOPTICS"> F  </i>
   <v name="STM">      0.00000000      0.00000000      0.00000000      0.00000000      0.00000000      0.00000000      0.00000000</v>
  </separator>
  <separator name="performance" >
   <i type="int" name="NPAR">     4</i>
   <i type="int" name="NSIM">     4</i>
   <i type="int" name="NBLK">    -1</i>
   <i type="logical" name="LPLANE"> T  </i>
   <i type="logical" name="LSCALAPACK"> T  </i>
   <i type="logical" name="LSCAAWARE"> F  </i>
   <i type="logical" name="LSCALU"> F  </i>
   <i type="logical" name="LASYNC"> F  </i>
   <i type="logical" name="LORBITALREAL"> F  </i>
  </separator>
  <separator name="miscellaneous" >
   <i type="int" name="IDIOT">     3</i>
   <i type="logical" name="LMUSIC"> F  </i>
   <v name="POMASS">     55.84700000     16.00000000     18.99800000</v>
   <v name="DARWINR">      0.00000000      0.00000000      0.00000000</v>
   <v name="DARWINV">      1.00000000      1.00000000      1.00000000</v>
   <i type="logical" name="LCORR"> T  </i>
  </separator>
  <i type="logical" name="GGA_COMPAT"> T  </i>
  <i type="logical" name="LBERRY"> F  </i>
  <i type="int" name="ICORELEVEL">     0</i>
  <i type="logical" name="LDAU"> F  </i>
  <i type="int" name="I_CONSTRAINED_M">     0</i>
  <separator name="electronic exchange-correlation" >
   <i type="string" name="GGA">--</i>
   <i type="int" name="VOSKOWN">     0</i>
   <i type="logical" name="LHFCALC"> F  </i>
   <i type="string" name="PRECFOCK"></i>
   <i type="logical" name="LSYMGRAD"> F  </i>
   <i type="logical" name="LHFONE"> F  </i>
   <i type="logical" name="LRHFCALC"> F  </i>
   <i type="logical" name="LTHOMAS"> F  </i>
   <i type="logical" name="LMODELHF"> F  </i>
   <i name="ENCUT4O">     -1.00000000</i>
   <i type="int" name="EXXOEP">     0</i>
   <i type="int" name="FOURORBIT">     0</i>
   <i name="AEXX">      0.00000000</i>
   <i name="HFALPHA">      0.00000000</i>
   <i name="MCALPHA">      0.00000000</i>
   <i name="ALDAX">      1.00000000</i>
   <i name="AGGAX">      1.00000000</i>
   <i name="ALDAC">      1.00000000</i>
   <i name="AGGAC">      1.00000000</i>
   <i type="int" name="NKREDX">     1</i>
   <i type="int" name="NKREDY">     1</i>
   <i type="int" name="NKREDZ">     1</i>
   <i type="logical" name="SHIFTRED"> F  </i>
   <i type="logical" name="ODDONLY"> F  </i>
   <i type="logical" name="EVENONLY"> F  </i>
   <i type="int" name="LMAXFOCK">     0</i>
   <i type="int" name="NMAXFOCKAE">     0</i>
   <i type="logical" name="LFOCKAEDFT"> F  </i>
   <i name="HFSCREEN">      0.00000000</i>
   <i name="HFSCREENC">      0.00000000</i>
   <i type="int" name="NBANDSGWLOW">     0</i>
  </separator>
  <separator name="vdW DFT" >
   <i type="logical" name="LUSE_VDW"> F  </i>
   <i name="Zab_VDW">     -0.84910000</i>
   <i name="PARAM1">      0.12340000</i>
   <i name="PARAM2">      1.00000000</i>
   <i name="PARAM3">      0.00000000</i>
  </separator>
  <separator name="model GW" >
   <i type="int" name="MODEL_GW">     0</i>
   <i name="MODEL_EPS0">      7.56646665</i>
   <i name="MODEL_ALPHA">      1.00000000</i>
  </separator>
  <separator name="linear response parameters" >
   <i type="logical" name="LEPSILON"> F  </i>
   <i type="logical" name="LRPA"> F  </i>
   <i type="logical" name="LNABLA"> F  </i>
   <i type="logical" name="LVEL"> F  </i>
   <i type="int" name="KINTER">     0</i>
   <i name="CSHIFT">      0.10000000</i>
   <i name="OMEGAMAX">     -1.00000000</i>
   <i name="DEG_THRESHOLD">      0.00200000</i>
  </separator>
  <separator name="orbital magnetization" >
   <i type="logical" name="NUCIND"> F  </i>
   <v name="MAGPOS">      0.00000000      0.00000000      0.00000000</v>
   <i type="logical" name="LNICSALL"> T  </i>
   <i type="logical" name="ORBITALMAG"> F  </i>
   <i type="logical" name="LMAGBLOCH"> F  </i>
   <i type="logical" name="LCHIMAG"> F  </i>
   <i type="logical" name="LGAUGE"> T  </i>
   <i type="int" name="MAGATOM">     0</i>
   <v name="MAGDIPOL">      0.00000000      0.00000000      0.00000000</v>
   <v name="AVECCONST">      0.00000000      0.00000000      0.00000000</v>
  </separator>
  <separator name="response functions" >
   <i type="logical" name="LADDER"> F  </i>
   <i type="logical" name="LFXC"> F  </i>
   <i type="logical" name="LHARTREE"> T  </i>
   <i type="int" name="IBSE">     0</i>
   <i type="logical" name="LTCTE"> F  </i>
   <i type="logical" name="LTETE"> F  </i>
   <i type="logical" name="LTRIPLET"> F  </i>
   <i type="logical" name="LFXCEPS"> F  </i>
   <i type="logical" name="LFXHEG"> F  </i>
   <i type="logical" name="L2ORDER"> F  </i>
   <i type="logical" name="LUSEW"> F  </i>
   <i name="ENCUTGW">     -2.00000000</i>
   <i name="ENCUTGWSOFT">     -2.00000000</i>
   <i name="ENCUTLF">     -1.00000000</i>
   <i type="int" name="LMAXMP2">    -1</i>
   <i name="SCISSOR">      0.00000000</i>
   <i type="int" name="NOMEGA">     0</i>
   <i type="int" name="NOMEGAR">     0</i>
   <i type="int" name="NBANDSGW">    -1</i>
   <i type="int" name="NBANDSO">    -1</i>
   <i type="int" name="NBANDSV">    -1</i>
   <i type="int" name="NELM">   300</i>
   <i type="int" name="DIM">     3</i>
   <i type="int" name="ANTIRES">     0</i>
   <i name="OMEGAMAX">    -30.00000000</i>
   <i name="OMEGAMIN">    -30.00000000</i>
   <i name="OMEGATL">   -200.00000000</i>
   <i type="int" name="OMEGAGRID">     0</i>
   <i name="CSHIFT">     -0.10000000</i>
   <i type="logical" name="SELFENERGY"> F  </i>
   <i type="logical" name="LSPECTRAL"> F  </i>
   <i type="logical" name="ODDONLYGW"> F  </i>
   <i type="logical" name="EVENONLYGW"> F  </i>
   <i type="int" name="NKREDLFX">     1</i>
   <i type="int" name="NKREDLFY">     1</i>
   <i type="int" name="NKREDLFZ">     1</i>
   <i type="int" name="MAXMEM">  1800</i>
   <i type="int" name="TELESCOPE">     0</i>
   <i type="int" name="TAUPAR">     1</i>
  </separator>
  <separator name="External order field" >
   <i name="OFIELD_KAPPA">      0.00000000</i>
   <v name="OFIELD_K">      0.00000000      0.00000000      0.00000000</v>
   <i name="OFIELD_Q6_NEAR">      0.00000000</i>
   <i name="OFIELD_Q6_FAR">      0.00000000</i>
   <i name="OFIELD_A">      0.00000000</i>
  </separator>
 </parameters>
 <atominfo>
  <atoms>      36 </atoms>
  <types>       3 </types>
  <array name="atoms" >
   <dimension dim="1">ion</dimension>
   <field type="string">element</field>
   <field type="int">atomtype</field>
   <set>
    <rc><c>Fe</c><c>   1</c></rc>
    <rc><c>Fe</c><c>   1</c></rc>
    <rc><c>Fe</c><c>   1</c></rc>
    <rc><c>Fe</c><c>   1</c></rc>
    <rc><c>Fe</c><c>   1</c></rc>
    <rc><c>Fe</c><c>   1</c></rc>
    <rc><c>Fe</c><c>   1</c></rc>
    <rc><c>Fe</c><c>   1</c></rc>
    <rc><c>Fe</c><c>   1</c></rc>
    <rc><c>Fe</c><c>   1</c></rc>
    <rc><c>Fe</c><c>   1</c></rc>
    <rc><c>Fe</c><c>   1</c></rc>
    <rc><c>O </c><c>   2</c></rc>
    <rc><c>O </c><c>   2</c></rc>
    <rc><c>F </c><c>   3</c></rc>
    <rc><c>F </c><c>   3</c></rc>
    <rc><c>F </c><c>   3</c></rc>
    <rc><c>F </c><c>   3</c></rc>
    <rc><c>F </c><c>   3</c></rc>
    <rc><c>F </c><c>   3</c></rc>
    <rc><c>F </c><c>   3</c></rc>
    <rc><c>F </c><c>   3</c></rc>
    <rc><c>F </c><c>   3</c></rc>
    <rc><c>F </c><c>   3</c></rc>
    <rc><c>F </c><c>   3</c></rc>
    <rc><c>F </c><c>   3</c></rc>
    <rc><c>F </c><c>   3</c></rc>
    <rc><c>F </c><c>   3</c></rc>
    <rc><c>F </c><c>   3</c></rc>
    <rc><c>F </c><c>   3</c></rc>
    <rc><c>F </c><c>   3</c></rc>
    <rc><c>F </c><c>   3</c></rc>
    <rc><c>F </c><c>   3</c></rc>
    <rc><c>F </c><c>   3</c></rc>
    <rc><c>F </c><c>   3</c></rc>
    <rc><c>F </c><c>   3</c></rc>
   </set>
  </array>
  <array name="atomtypes" >
   <dimension dim="1">type</dimension>
   <field type="int">atomspertype</field>
   <field type="string">element</field>
   <field>mass</field>
   <field>valence</field>
   <field type="string">pseudopotential</field>
   <set>
    <rc><c>  12</c><c>Fe</c><c>     55.84700000</c><c>      8.00000000</c><c>  PAW_PBE Fe 06Sep2000                  </c></rc>
    <rc><c>   2</c><c>O </c><c>     16.00000000</c><c>      6.00000000</c><c>  PAW_PBE O 08Apr2002                   </c></rc>
    <rc><c>  22</c><c>F </c><c>     18.99800000</c><c>      7.00000000</c><c>  PAW_PBE F 08Apr2002                   </c></rc>
   </set>
  </array>
 </atominfo>
 <structure name="initialpos" >
  <crystal>
   <varray name="basis" >
    <v>       3.25262800       0.00000000       0.00000000 </v>
    <v>       0.00000000      20.54938400      -0.03082000 </v>
    <v>       0.00000000       0.00000000       6.79221100 </v>
   </varray>
   <i name="volume">    453.98799923 </i>
   <varray name="rec_basis" >
    <v>       0.30744370       0.00000000       0.00000000 </v>
    <v>       0.00000000       0.04866326       0.00000000 </v>
    <v>       0.00000000       0.00022081       0.14722746 </v>
   </varray>
  </crystal>
  <varray name="positions" >
   <v>       0.00000000       0.16671900       0.50139100 </v>
   <v>       0.00000000       0.83328100       0.50139100 </v>
   <v>       0.00088600       0.66671900       0.00139100 </v>
   <v>       0.00000000       0.33328100       0.00139100 </v>
   <v>       0.50000000       0.16958500       0.00000400 </v>
   <v>       0.50000000       0.83397900       0.00000400 </v>
   <v>       0.50000000       0.66602100       0.50000400 </v>
   <v>       0.50000000       0.33397900       0.50000400 </v>
   <v>       0.00000000       0.00000000       0.01216200 </v>
   <v>       0.00000000       0.50000000       0.51216200 </v>
   <v>       0.50000000       0.00000000       0.47240000 </v>
   <v>       0.50000000       0.50000000       0.97240000 </v>
   <v>       0.00000000       0.00000000       0.31436200 </v>
   <v>       0.00000000       0.50000000       0.81436200 </v>
   <v>       0.00678400       0.16816900       0.20329900 </v>
   <v>       0.00000000       0.83183100       0.20329900 </v>
   <v>       0.00000000       0.66816900       0.70329900 </v>
   <v>       0.00000000       0.33183100       0.70329900 </v>
   <v>       0.00260700       0.16838200       0.79921200 </v>
   <v>       0.00000000       0.83161800       0.79934600 </v>
   <v>       0.00000000       0.66838200       0.29934600 </v>
   <v>       0.00000000       0.33161800       0.29934600 </v>
   <v>       0.50000000       0.06837200       0.99633700 </v>
   <v>       0.50000000       0.93162800       0.99633700 </v>
   <v>       0.49410500       0.56837200       0.49633700 </v>
   <v>       0.50000000       0.43162800       0.49633700 </v>
   <v>       0.50914700       0.09818400       0.50359800 </v>
   <v>       0.50000000       0.90181600       0.50567900 </v>
   <v>       0.49726800       0.59818400       0.00567900 </v>
   <v>       0.50000000       0.40181600       0.00776700 </v>
   <v>       0.50000000       0.23406000       0.50152500 </v>
   <v>       0.50000000       0.76594000       0.50152500 </v>
   <v>       0.50000000       0.73406000       0.00152500 </v>
   <v>       0.50000000       0.26594000       0.00152500 </v>
   <v>       0.99556600       0.00000000       0.68939000 </v>
   <v>       0.00000000       0.50000000       0.19474100 </v>
  </varray>
 </structure>
 <calculation>
  <scstep>
   <time name="diag">    0.32    0.53</time>
   <time name="diis">    0.43    0.69</time>
   <time name="orth">    0.06    0.06</time>
   <time name="total">    1.11    1.75</time>
   <energy>
    <i name="alphaZ">    943.57652748 </i>
    <i name="ewald"> -15986.64698643 </i>
    <i name="hartreedc">  -6697.93070979 </i>
    <i name="XCdc">    902.24071899 </i>
    <i name="pawpsdc">  19213.82102697 </i>
    <i name="pawaedc"> -19422.08171028 </i>
    <i name="eentropy">      0.03204246 </i>
    <i name="bandstr">   1814.39302775 </i>
    <i name="atom">  22504.09828397 </i>
    <i name="e_fr_energy">   3271.50222112 </i>
    <i name="e_wo_entrp">   3271.47017866 </i>
    <i name="e_0_energy">   3271.49154030 </i>
   </energy>
  </scstep>
  <scstep>
   <time name="diag">    0.44    0.67</time>
   <time name="diis">    0.63    0.67</time>
   <time name="orth">    0.07    0.07</time>
   <time name="total">    1.14    1.42</time>
   <energy>
    <i name="e_fr_energy">   1027.13284062 </i>
    <i name="e_wo_entrp">   1027.09209274 </i>
    <i name="e_0_energy">   1027.11925799 </i>
   </energy>
  </scstep>
  <scstep>
   <time name="diag">    0.18    0.18</time>
   <time name="diis">    0.45    0.64</time>
   <time name="orth">    0.06    0.13</time>
   <time name="total">    0.69    0.95</time>
   <energy>
    <i name="e_fr_energy">    347.77913816 </i>
    <i name="e_wo_entrp">    347.91897177 </i>
    <i name="e_0_energy">    347.82574936 </i>
   </energy>
  </scstep>
  <scstep>
   <time name="diag">    0.28    0.31</time>
   <time name="diis">    0.53    0.67</time>
   <time name="orth">    0.21    0.31</time>
   <time name="total">    1.02    1.29</time>
   <energy>
    <i name="e_fr_energy">     59.42901833 </i>
    <i name="e_wo_entrp">     59.37419186 </i>
    <i name="e_0_energy">     59.41074284 </i>
   </energy>
  </scstep>
  <scstep>
   <time name="diag">    0.26    0.38</time>
   <time name="diis">    0.40    0.56</time>
   <time name="orth">    0.06    0.13</time>
   <time name="total">    0.73    1.07</time>
   <energy>
    <i name="e_fr_energy">    -94.76884393 </i>
    <i name="e_wo_entrp">    -94.78980031 </i>
    <i name="e_0_energy">    -94.77582939 </i>
   </energy>
  </scstep>
  <scstep>
   <time name="diag">    0.21    0.38</time>
   <time name="diis">    0.39    0.54</time>
   <time name="orth">    0.14    0.17</time>
   <time name="total">    0.73    1.09</time>
   <energy>
    <i name="e_fr_energy">   -162.26501523 </i>
    <i name="e_wo_entrp">   -162.31283104 </i>
    <i name="e_0_energy">   -162.28095384 </i>
   </energy>
  </scstep>
  <scstep>
   <time name="diag">    0.19    0.21</time>
   <time name="diis">    0.44    0.66</time>
   <time name="orth">    0.08    0.14</time>
   <time name="total">    0.71    1.02</time>
   <energy>
    <i name="e_fr_energy">   -195.88712328 </i>
    <i name="e_wo_entrp">   -196.01888192 </i>
    <i name="e_0_energy">   -195.93104283 </i>
   </energy>
  </scstep>
  <scstep>
   <time name="diag">    0.29    0.38</time>
   <time name="diis">    0.43    0.57</time>
   <time name="orth">    0.07    0.09</time>
   <time name="total">    0.80    1.04</time>
   <energy>
    <i name="e_fr_energy">   -208.96505071 </i>
    <i name="e_wo_entrp">   -209.15125287 </i>
    <i name="e_0_energy">   -209.02711810 </i>
   </energy>
  </scstep>
  <scstep>
   <time name="diag">    0.25    0.32</time>
   <time name="diis">    1.49    2.10</time>
   <time name="orth">    0.06    0.06</time>
   <time name="total">    1.79    2.48</time>
   <energy>
    <i name="e_fr_energy">   -222.11559573 </i>
    <i name="e_wo_entrp">   -222.31045278 </i>
    <i name="e_0_energy">   -222.18054808 </i>
   </energy>
  </scstep>
  <scstep>
   <time name="diag">    0.22    0.24</time>
   <time name="diis">    1.44    2.02</time>
   <time name="orth">    0.05    0.05</time>
   <time name="total">    1.70    2.30</time>
   <energy>
    <i name="e_fr_energy">   -222.39982836 </i>
    <i name="e_wo_entrp">   -222.54844255 </i>
    <i name="e_0_energy">   -222.44936642 </i>
   </energy>
  </scstep>
  <scstep>
   <time name="diag">    0.12    0.22</time>
   <time name="diis">    1.45    1.92</time>
   <time name="orth">    0.06    0.06</time>
   <time name="total">    1.63    2.20</time>
   <energy>
    <i name="e_fr_energy">   -222.66844587 </i>
    <i name="e_wo_entrp">   -222.80898793 </i>
    <i name="e_0_energy">   -222.71529322 </i>
   </energy>
  </scstep>
  <scstep>
   <time name="diag">    0.32    0.43</time>
   <time name="diis">    1.11    1.63</time>
   <time name="orth">    0.03    0.06</time>
   <time name="total">    1.64    2.32</time>
   <energy>
    <i name="e_fr_energy">   -222.76555106 </i>
    <i name="e_wo_entrp">   -222.89819228 </i>
    <i name="e_0_energy">   -222.80976480 </i>
   </energy>
  </scstep>
  <scstep>
   <time name="diag">    0.59    0.78</time>
   <time name="diis">    0.99    1.45</time>
   <time name="orth">    0.05    0.06</time>
   <time name="total">    2.00    2.72</time>
   <energy>
    <i name="e_fr_energy">   -208.59387668 </i>
    <i name="e_wo_entrp">   -208.65378859 </i>
    <i name="e_0_energy">   -208.61384731 </i>
   </energy>
  </scstep>
  <scstep>
   <time name="diag">    0.21    0.29</time>
   <time name="diis">    0.96    1.35</time>
   <time name="orth">    0.06    0.09</time>
   <time name="total">    1.46    2.04</time>
   <energy>
    <i name="e_fr_energy">   -243.29381390 </i>
    <i name="e_wo_entrp">   -243.40847826 </i>
    <i name="e_0_energy">   -243.33203535 </i>
   </energy>
  </scstep>
  <scstep>
   <time name="diag">    0.15    0.27</time>
   <time name="diis">    1.02    1.42</time>
   <time name="orth">    0.09    0.09</time>
   <time name="total">    1.61    2.27</time>
   <energy>
    <i name="e_fr_energy">   -228.83219261 </i>
    <i name="e_wo_entrp">   -228.84820543 </i>
    <i name="e_0_energy">   -228.83753022 </i>
   </energy>
  </scstep>
  <scstep>
   <time name="diag">    0.20    0.37</time>
   <time name="diis">    1.09    1.59</time>
   <time name="orth">    0.09    0.12</time>
   <time name="total">    1.69    2.48</time>
   <energy>
    <i name="e_fr_energy">   -206.18705969 </i>
    <i name="e_wo_entrp">   -206.12379562 </i>
    <i name="e_0_energy">   -206.16597167 </i>
   </energy>
  </scstep>
  <scstep>
   <time name="diag">    0.38    0.55</time>
   <time name="diis">    0.95    1.35</time>
   <time name="orth">    0.16    0.22</time>
   <time name="total">    1.99    2.67</time>
   <energy>
    <i name="e_fr_energy">   -250.12773612 </i>
    <i name="e_wo_entrp">   -250.15094897 </i>
    <i name="e_0_energy">   -250.13547374 </i>
   </energy>
  </scstep>
  <scstep>
   <time name="diag">    0.34    0.50</time>
   <time name="diis">    1.09    1.46</time>
   <time name="orth">    0.13    0.22</time>
   <time name="total">    1.77    2.52</time>
   <energy>
    <i name="e_fr_energy">   -234.40386001 </i>
    <i name="e_wo_entrp">   -234.33318268 </i>
    <i name="e_0_energy">   -234.38030090 </i>
   </energy>
  </scstep>
  <scstep>
   <time name="diag">    0.26    0.30</time>
   <time name="diis">    1.05    1.35</time>
   <time name="orth">    0.04    0.06</time>
   <time name="total">    1.67    2.21</time>
   <energy>
    <i name="e_fr_energy">   -231.82001184 </i>
    <i name="e_wo_entrp">   -231.78982857 </i>
    <i name="e_0_energy">   -231.80995075 </i>
   </energy>
  </scstep>
  <scstep>
   <time name="diag">    0.34    0.40</time>
   <time name="diis">    0.99    1.31</time>
   <time name="orth">    0.07    0.08</time>
   <time name="total">    1.70    2.23</time>
   <energy>
    <i name="e_fr_energy">   -215.03264307 </i>
    <i name="e_wo_entrp">   -215.03385808 </i>
    <i name="e_0_energy">   -215.03304807 </i>
   </energy>
  </scstep>
  <scstep>
   <time name="diag">    0.11    0.22</time>
   <time name="diis">    0.87    1.21</time>
   <time name="orth">    0.08    0.17</time>
   <time name="total">    1.27    1.82</time>
   <energy>
    <i name="e_fr_energy">   -231.55753671 </i>
    <i name="e_wo_entrp">   -231.58118277 </i>
    <i name="e_0_energy">   -231.56541873 </i>
   </energy>
  </scstep>
  <scstep>
   <time name="diag">    0.13    0.13</time>
   <time name="diis">    0.84    1.50</time>
   <time name="orth">    0.10    0.11</time>
   <time name="total">    1.31    2.02</time>
   <energy>
    <i name="e_fr_energy">   -219.56973091 </i>
    <i name="e_wo_entrp">   -219.41641088 </i>
    <i name="e_0_energy">   -219.51862424 </i>
   </energy>
  </scstep>
  <scstep>
   <time name="diag">    0.20    0.34</time>
   <time name="diis">    0.94    1.32</time>
   <time name="orth">    0.06    0.06</time>
   <time name="total">    1.44    2.13</time>
   <energy>
    <i name="e_fr_energy">   -208.59863617 </i>
    <i name="e_wo_entrp">   -208.54133980 </i>
    <i name="e_0_energy">   -208.57953738 </i>
   </energy>
  </scstep>
  <scstep>
   <time name="diag">    0.18    0.38</time>
   <time name="diis">    0.95    1.40</time>
   <time name="orth">    0.05    0.05</time>
   <time name="total">    1.39    2.18</time>
   <energy>
    <i name="e_fr_energy">   -206.24800856 </i>
    <i name="e_wo_entrp">   -206.20014427 </i>
    <i name="e_0_energy">   -206.23205380 </i>
   </energy>
  </scstep>
  <scstep>
   <time name="diag">    0.20    0.32</time>
   <time name="diis">    0.93    1.26</time>
   <time name="orth">    0.04    0.04</time>
   <time name="total">    1.43    2.00</time>
   <energy>
    <i name="e_fr_energy">   -204.07455120 </i>
    <i name="e_wo_entrp">   -204.06927612 </i>
    <i name="e_0_energy">   -204.07279284 </i>
   </energy>
  </scstep>
  <scstep>
   <time name="diag">    0.18    0.25</time>
   <time name="diis">    1.06    1.43</time>
   <time name="orth">    0.04    0.05</time>
   <time name="total">    1.51    2.05</time>
   <energy>
    <i name="e_fr_energy">   -193.96319252 </i>
    <i name="e_wo_entrp">   -194.15948211 </i>
    <i name="e_0_energy">   -194.02862238 </i>
   </energy>
  </scstep>
  <scstep>
   <time name="diag">    0.23    0.25</time>
   <time name="diis">    0.96    1.21</time>
   <time name="orth">    0.06    0.06</time>
   <time name="total">    1.48    1.83</time>
   <energy>
    <i name="e_fr_energy">   -192.77545248 </i>
    <i name="e_wo_entrp">   -192.81361336 </i>
    <i name="e_0_energy">   -192.78817277 </i>
   </energy>
  </scstep>
  <scstep>
   <time name="diag">    0.22    0.39</time>
   <time name="diis">    0.91    1.15</time>
   <time name="orth">    0.03    0.04</time>
   <time name="total">    1.35    1.88</time>
   <energy>
    <i name="e_fr_energy">   -190.95688210 </i>
    <i name="e_wo_entrp">   -190.91977226 </i>
    <i name="e_0_energy">   -190.94451215 </i>
   </energy>
  </scstep>
  <scstep>
   <time name="diag">    0.25    0.30</time>
   <time name="diis">    0.92    1.41</time>
   <time name="orth">    0.03    0.06</time>
   <time name="total">    1.39    2.04</time>
   <energy>
    <i name="e_fr_energy">   -190.48288675 </i>
    <i name="e_wo_entrp">   -190.61846783 </i>
    <i name="e_0_energy">   -190.52808044 </i>
   </energy>
  </scstep>
  <scstep>
   <time name="diag">    0.21    0.31</time>
   <time name="diis">    0.85    1.35</time>
   <time name="orth">    0.06    0.06</time>
   <time name="total">    1.30    1.97</time>
   <energy>
    <i name="e_fr_energy">   -189.77683119 </i>
    <i name="e_wo_entrp">   -189.80119418 </i>
    <i name="e_0_energy">   -189.78495218 </i>
   </energy>
  </scstep>
  <scstep>
   <time name="diag">    0.19    0.26</time>
   <time name="diis">    0.89    1.32</time>
   <time name="orth">    0.10    0.14</time>
   <time name="total">    1.43    2.08</time>
   <energy>
    <i name="e_fr_energy">   -189.86530817 </i>
    <i name="e_wo_entrp">   -189.91939347 </i>
    <i name="e_0_energy">   -189.88333660 </i>
   </energy>
  </scstep>
  <scstep>
   <time name="diag">    0.38    0.50</time>
   <time name="diis">    0.86    1.55</time>
   <time name="orth">    0.10    0.14</time>
   <time name="total">    1.68    2.71</time>
   <energy>
    <i name="e_fr_energy">   -189.66255071 </i>
    <i name="e_wo_entrp">   -189.69953426 </i>
    <i name="e_0_energy">   -189.67487856 </i>
   </energy>
  </scstep>
  <scstep>
   <time name="diag">    0.14    0.23</time>
   <time name="diis">    1.08    1.50</time>
   <time name="orth">    0.16    0.16</time>
   <time name="total">    1.52    2.11</time>
   <energy>
    <i name="e_fr_energy">   -189.58815270 </i>
    <i name="e_wo_entrp">   -189.60848454 </i>
    <i name="e_0_energy">   -189.59492998 </i>
   </energy>
  </scstep>
  <scstep>
   <time name="diag">    0.20    0.29</time>
   <time name="diis">    0.96    1.27</time>
   <time name="orth">    0.05    0.05</time>
   <time name="total">    1.46    1.99</time>
   <energy>
    <i name="e_fr_energy">   -189.41049293 </i>
    <i name="e_wo_entrp">   -189.40343388 </i>
    <i name="e_0_energy">   -189.40813991 </i>
   </energy>
  </scstep>
  <scstep>
   <time name="diag">    0.14    0.23</time>
   <time name="diis">    0.96    1.46</time>
   <time name="orth">    0.08    0.13</time>
   <time name="total">    1.34    2.02</time>
   <energy>
    <i name="e_fr_energy">   -189.38061798 </i>
    <i name="e_wo_entrp">   -189.34578929 </i>
    <i name="e_0_energy">   -189.36900842 </i>
   </energy>
  </scstep>
  <scstep>
   <time name="diag">    0.17    0.31</time>
   <time name="diis">    0.98    1.32</time>
   <time name="orth">    0.13    0.16</time>
   <time name="total">    1.59    2.16</time>
   <energy>
    <i name="e_fr_energy">   -189.42197240 </i>
    <i name="e_wo_entrp">   -189.43573282 </i>
    <i name="e_0_energy">   -189.42655921 </i>
   </energy>
  </scstep>
  <scstep>
   <time name="diag">    0.19    0.23</time>
   <time name="diis">    1.16    1.53</time>
   <time name="orth">    0.05    0.07</time>
   <time name="total">    1.60    2.14</time>
   <energy>
    <i name="e_fr_energy">   -189.43750858 </i>
    <i name="e_wo_entrp">   -189.39029631 </i>
    <i name="e_0_energy">   -189.42177116 </i>
   </energy>
  </scstep>
  <scstep>
   <time name="diag">    0.23    0.35</time>
   <time name="diis">    1.13    1.64</time>
   <time name="orth">    0.08    0.12</time>
   <time name="total">    1.81    2.59</time>
   <energy>
    <i name="e_fr_energy">   -189.39816733 </i>
    <i name="e_wo_entrp">   -189.39928462 </i>
    <i name="e_0_energy">   -189.39853976 </i>
   </energy>
  </scstep>
  <scstep>
   <time name="diag">    0.15    0.19</time>
   <time name="diis">    0.91    1.36</time>
   <time name="orth">    0.06    0.06</time>
   <time name="total">    1.36    2.00</time>
   <energy>
    <i name="e_fr_energy">   -189.37483663 </i>
    <i name="e_wo_entrp">   -189.34716824 </i>
    <i name="e_0_energy">   -189.36561383 </i>
   </energy>
  </scstep>
  <scstep>
   <time name="diag">    0.19    0.26</time>
   <time name="diis">    0.94    1.30</time>
   <time name="orth">    0.05    0.10</time>
   <time name="total">    1.42    1.99</time>
   <energy>
    <i name="e_fr_energy">   -189.36215465 </i>
    <i name="e_wo_entrp">   -189.33647508 </i>
    <i name="e_0_energy">   -189.35359479 </i>
   </energy>
  </scstep>
  <scstep>
   <time name="diag">    0.18    0.23</time>
   <time name="diis">    0.91    1.30</time>
   <time name="orth">    0.23    0.34</time>
   <time name="total">    1.61    2.16</time>
   <energy>
    <i name="e_fr_energy">   -189.34943140 </i>
    <i name="e_wo_entrp">   -189.32600808 </i>
    <i name="e_0_energy">   -189.34162363 </i>
   </energy>
  </scstep>
  <scstep>
   <time name="diag">    0.28    0.39</time>
   <time name="diis">    0.86    1.26</time>
   <time name="orth">    0.07    0.11</time>
   <time name="total">    1.36    2.00</time>
   <energy>
    <i name="e_fr_energy">   -189.34204189 </i>
    <i name="e_wo_entrp">   -189.32316793 </i>
    <i name="e_0_energy">   -189.33575057 </i>
   </energy>
  </scstep>
  <scstep>
   <time name="diag">    0.16    0.20</time>
   <time name="diis">    0.78    1.17</time>
   <time name="orth">    0.05    0.06</time>
   <time name="total">    1.15    1.66</time>
   <energy>
    <i name="e_fr_energy">   -189.33068900 </i>
    <i name="e_wo_entrp">   -189.31683377 </i>
    <i name="e_0_energy">   -189.32607059 </i>
   </energy>
  </scstep>
  <scstep>
   <time name="diag">    0.18    0.24</time>
   <time name="diis">    1.33    1.53</time>
   <time name="orth">    0.05    0.06</time>
   <time name="total">    1.73    2.08</time>
   <energy>
    <i name="e_fr_energy">   -189.32150762 </i>
    <i name="e_wo_entrp">   -189.31529302 </i>
    <i name="e_0_energy">   -189.31943609 </i>
   </energy>
  </scstep>
  <scstep>
   <time name="diag">    0.29    0.47</time>
   <time name="diis">    0.81    1.22</time>
   <time name="orth">    0.09    0.09</time>
   <time name="total">    1.34    2.07</time>
   <energy>
    <i name="e_fr_energy">   -189.31696655 </i>
    <i name="e_wo_entrp">   -189.31473647 </i>
    <i name="e_0_energy">   -189.31622319 </i>
   </energy>
  </scstep>
  <scstep>
   <time name="diag">    0.20    0.29</time>
   <time name="diis">    0.81    1.16</time>
   <time name="orth">    0.14    0.27</time>
   <time name="total">    1.39    2.14</time>
   <energy>
    <i name="e_fr_energy">   -189.31177467 </i>
    <i name="e_wo_entrp">   -189.31710735 </i>
    <i name="e_0_energy">   -189.31355223 </i>
   </energy>
  </scstep>
  <scstep>
   <time name="diag">    0.16    0.22</time>
   <time name="diis">    0.85    1.26</time>
   <time name="orth">    0.07    0.10</time>
   <time name="total">    1.31    1.93</time>
   <energy>
    <i name="e_fr_energy">   -189.30925880 </i>
    <i name="e_wo_entrp">   -189.32032502 </i>
    <i name="e_0_energy">   -189.31294754 </i>
   </energy>
  </scstep>
  <scstep>
   <time name="diag">    0.16    0.21</time>
   <time name="diis">    0.60    0.85</time>
   <time name="orth">    0.03    0.03</time>
   <time name="total">    1.15    1.60</time>
   <energy>
    <i name="e_fr_energy">   -189.30888949 </i>
    <i name="e_wo_entrp">   -189.31975080 </i>
    <i name="e_0_energy">   -189.31250993 </i>
   </energy>
  </scstep>
  <scstep>
   <time name="diag">    0.13    0.24</time>
   <time name="diis">    0.68    0.88</time>
   <time name="orth">    0.05    0.05</time>
   <time name="total">    1.13    1.55</time>
   <energy>
    <i name="e_fr_energy">   -189.30858179 </i>
    <i name="e_wo_entrp">   -189.32154782 </i>
    <i name="e_0_energy">   -189.31290380 </i>
   </energy>
  </scstep>
  <scstep>
   <time name="diag">    0.27    0.45</time>
   <time name="diis">    0.55    0.74</time>
   <time name="orth">    0.06    0.06</time>
   <time name="total">    1.08    1.51</time>
   <energy>
    <i name="e_fr_energy">   -189.30844436 </i>
    <i name="e_wo_entrp">   -189.32173669 </i>
    <i name="e_0_energy">   -189.31287513 </i>
   </energy>
  </scstep>
  <scstep>
   <time name="diag">    0.12    0.22</time>
   <time name="diis">    0.58    0.96</time>
   <time name="orth">    0.04    0.05</time>
   <time name="total">    0.90    1.42</time>
   <energy>
    <i name="e_fr_energy">   -189.30859290 </i>
    <i name="e_wo_entrp">   -189.32322381 </i>
    <i name="e_0_energy">   -189.31346987 </i>
   </energy>
  </scstep>
  <scstep>
   <time name="diag">    0.35    0.52</time>
   <time name="diis">    0.54    0.69</time>
   <time name="orth">    0.06    0.06</time>
   <time name="total">    1.19    1.56</time>
   <energy>
    <i name="alphaZ">    943.57652748 </i>
    <i name="ewald"> -15986.64698643 </i>
    <i name="hartreedc">  -6856.96033646 </i>
    <i name="XCdc">    918.55511263 </i>
    <i name="pawpsdc">  22420.43357642 </i>
    <i name="pawaedc"> -22630.78244123 </i>
    <i name="eentropy">      0.01512973 </i>
    <i name="bandstr">  -1501.59745234 </i>
    <i name="atom">  22504.09828397 </i>
    <i name="e_fr_energy">   -189.30858624 </i>
    <i name="e_wo_entrp">   -189.32371597 </i>
    <i name="e_0_energy">   -189.31362948 </i>
   </energy>
  </scstep>
  <structure>
   <crystal>
    <varray name="basis" >
     <v>       3.25262800       0.00000000       0.00000000 </v>
     <v>       0.00000000      20.54938400      -0.03082000 </v>
     <v>       0.00000000       0.00000000       6.79221100 </v>
    </varray>
    <i name="volume">    453.98799923 </i>
    <varray name="rec_basis" >
     <v>       0.30744370       0.00000000       0.00000000 </v>
     <v>       0.00000000       0.04866326       0.00000000 </v>
     <v>       0.00000000       0.00022081       0.14722746 </v>
    </varray>
   </crystal>
   <varray name="positions" >
    <v>       0.00000000       0.16671900       0.50139100 </v>
    <v>       0.00000000       0.83328100       0.50139100 </v>
    <v>       0.00088600       0.66671900       0.00139100 </v>
    <v>       0.00000000       0.33328100       0.00139100 </v>
    <v>       0.50000000       0.16958500       0.00000400 </v>
    <v>       0.50000000       0.83397900       0.00000400 </v>
    <v>       0.50000000       0.66602100       0.50000400 </v>
    <v>       0.50000000       0.33397900       0.50000400 </v>
    <v>       0.00000000       0.00000000       0.01216200 </v>
    <v>       0.00000000       0.50000000       0.51216200 </v>
    <v>       0.50000000       0.00000000       0.47240000 </v>
    <v>       0.50000000       0.50000000       0.97240000 </v>
    <v>       0.00000000       0.00000000       0.31436200 </v>
    <v>       0.00000000       0.50000000       0.81436200 </v>
    <v>       0.00678400       0.16816900       0.20329900 </v>
    <v>       0.00000000       0.83183100       0.20329900 </v>
    <v>       0.00000000       0.66816900       0.70329900 </v>
    <v>       0.00000000       0.33183100       0.70329900 </v>
    <v>       0.00260700       0.16838200       0.79921200 </v>
    <v>       0.00000000       0.83161800       0.79934600 </v>
    <v>       0.00000000       0.66838200       0.29934600 </v>
    <v>       0.00000000       0.33161800       0.29934600 </v>
    <v>       0.50000000       0.06837200       0.99633700 </v>
    <v>       0.50000000       0.93162800       0.99633700 </v>
    <v>       0.49410500       0.56837200       0.49633700 </v>
    <v>       0.50000000       0.43162800       0.49633700 </v>
    <v>       0.50914700       0.09818400       0.50359800 </v>
    <v>       0.50000000       0.90181600       0.50567900 </v>
    <v>       0.49726800       0.59818400       0.00567900 </v>
    <v>       0.50000000       0.40181600       0.00776700 </v>
    <v>       0.50000000       0.23406000       0.50152500 </v>
    <v>       0.50000000       0.76594000       0.50152500 </v>
    <v>       0.50000000       0.73406000       0.00152500 </v>
    <v>       0.50000000       0.26594000       0.00152500 </v>
    <v>       0.99556600       0.00000000       0.68939000 </v>
    <v>       0.00000000       0.50000000       0.19474100 </v>
   </varray>
  </structure>
  <varray name="forces" >
   <v>       0.20623067      -0.18732739       0.02767748 </v>
   <v>       0.00062647       0.09762682       0.06779436 </v>
   <v>      -0.05300933      -0.09333576       0.06909015 </v>
   <v>      -0.00137035       0.16410995       0.10293710 </v>
   <v>       0.11985185      -0.48541153       0.07441102 </v>
   <v>      -0.00366001      -0.28629732       0.07277775 </v>
   <v>      -0.05756543       0.28653662       0.07119213 </v>
   <v>       0.00117965      -0.27635581       0.06573437 </v>
   <v>      -0.05080192       0.08092439       1.04263381 </v>
   <v>      -0.05513098      -0.00035243       1.00262156 </v>
   <v>       0.02504252       0.00126142       0.04706205 </v>
   <v>      -0.02432975       0.00021878       0.14302831 </v>
   <v>       0.06018689      -0.01335671      -1.16574300 </v>
   <v>      -0.00506773      -0.00470555      -1.12885148 </v>
   <v>      -0.14850896       0.04824813      -0.22720306 </v>
   <v>      -0.00014922       0.19142765      -0.22860757 </v>
   <v>       0.00695931      -0.19400724      -0.21452009 </v>
   <v>       0.00001037       0.19075013      -0.19057673 </v>
   <v>      -0.10567217       0.04382122       0.16081143 </v>
   <v>      -0.00008070       0.18863129       0.16327710 </v>
   <v>       0.00664053      -0.18821140       0.15128198 </v>
   <v>      -0.00054074       0.17750802       0.13556012 </v>
   <v>       0.00261085      -0.47378385       0.20303953 </v>
   <v>      -0.00064574       0.54960070       0.19628162 </v>
   <v>       0.09123917      -0.52780344       0.20604447 </v>
   <v>       0.01990920       0.52401525       0.20804968 </v>
   <v>      -0.14777651       0.88150358      -0.13934274 </v>
   <v>      -0.02188977      -0.86206372      -0.18596384 </v>
   <v>       0.05264090       0.84571537      -0.19158397 </v>
   <v>       0.00541095      -0.81161125      -0.23531816 </v>
   <v>      -0.02362100      -0.39213761      -0.01971322 </v>
   <v>       0.01175066       0.40483924      -0.02756897 </v>
   <v>       0.01752070      -0.39186465      -0.02969992 </v>
   <v>       0.00652828       0.51081709      -0.03822891 </v>
   <v>       0.07197139      -0.00375731      -0.05542606 </v>
   <v>      -0.00649004       0.00482732      -0.13295833 </v>
  </varray>
  <varray name="stress" >
   <v>    -247.17962639      -0.28977917      -0.06660190 </v>
   <v>      -0.28978025    -256.22092480       0.39601804 </v>
   <v>      -0.06660133       0.39601800    -283.59608396 </v>
  </varray>
  <energy>
   <i name="e_fr_energy">   -189.30858624 </i>
   <i name="e_wo_entrp">   -189.31362948 </i>
   <i name="e_0_energy">      0.01512973 </i>
  </energy>
  <time name="totalsc">   75.28  106.08</time>
  <eigenvalues>
   <array>
    <dimension dim="1">band</dimension>
    <dimension dim="2">kpoint</dimension>
    <dimension dim="3">spin</dimension>
    <field>eigene</field>
    <field>occ</field>
    <set>
     <set comment="spin 1">
      <set comment="kpoint 1">
       <r>  -22.7878    1.0000 </r>
       <r>  -22.7243    1.0000 </r>
       <r>  -22.5783    1.0000 </r>
       <r>  -22.5604    1.0000 </r>
       <r>  -22.5073    1.0000 </r>
       <r>  -22.3744    1.0000 </r>
       <r>  -22.3308    1.0000 </r>
       <r>  -22.2822    1.0000 </r>
       <r>  -22.2795    1.0000 </r>
       <r>  -22.2773    1.0000 </r>
       <r>  -22.2704    1.0000 </r>
       <r>  -22.2577    1.0000 </r>
       <r>  -22.2513    1.0000 </r>
       <r>  -22.2107    1.0000 </r>
       <r>  -22.1808    1.0000 </r>
       <r>  -22.1579    1.0000 </r>
       <r>  -22.1534    1.0000 </r>
       <r>  -22.1260    1.0000 </r>
       <r>  -22.1064    1.0000 </r>
       <r>  -21.9868    1.0000 </r>
       <r>  -20.9748    1.0000 </r>
       <r>  -20.9432    1.0000 </r>
       <r>  -16.5479    1.0000 </r>
       <r>  -16.5241    1.0000 </r>
       <r>   -6.1943    1.0000 </r>
       <r>   -6.0987    1.0000 </r>
       <r>   -5.9119    1.0000 </r>
       <r>   -5.8443    1.0000 </r>
       <r>   -5.6760    1.0000 </r>
       <r>   -5.4704    1.0000 </r>
       <r>   -5.4257    1.0000 </r>
       <r>   -5.3236    1.0000 </r>
       <r>   -5.2684    1.0000 </r>
       <r>   -5.1112    1.0000 </r>
       <r>   -4.6537    1.0000 </r>
       <r>   -4.5981    1.0000 </r>
       <r>   -4.5588    1.0000 </r>
       <r>   -4.5042    1.0000 </r>
       <r>   -4.3836    1.0000 </r>
       <r>   -4.3769    1.0000 </r>
       <r>   -4.3537    1.0000 </r>
       <r>   -4.3352    1.0000 </r>
       <r>   -4.3284    1.0000 </r>
       <r>   -4.3134    1.0000 </r>
       <r>   -4.3122    1.0000 </r>
       <r>   -4.2865    1.0000 </r>
       <r>   -4.2607    1.0000 </r>
       <r>   -4.2425    1.0000 </r>
       <r>   -4.2190    1.0000 </r>
       <r>   -4.2034    1.0000 </r>
       <r>   -4.2006    1.0000 </r>
       <r>   -4.1844    1.0000 </r>
       <r>   -4.1615    1.0000 </r>
       <r>   -4.1466    1.0000 </r>
       <r>   -4.1380    1.0000 </r>
       <r>   -4.0898    1.0000 </r>
       <r>   -4.0860    1.0000 </r>
       <r>   -4.0807    1.0000 </r>
       <r>   -4.0529    1.0000 </r>
       <r>   -3.9861    1.0000 </r>
       <r>   -3.9428    1.0000 </r>
       <r>   -3.8749    1.0000 </r>
       <r>   -3.8548    1.0000 </r>
       <r>   -3.7162    1.0000 </r>
       <r>   -3.6035    1.0000 </r>
       <r>   -3.5679    1.0000 </r>
       <r>   -3.5656    1.0000 </r>
       <r>   -3.5182    1.0000 </r>
       <r>   -3.5090    1.0000 </r>
       <r>   -3.4957    1.0000 </r>
       <r>   -3.4286    1.0000 </r>
       <r>   -3.3694    1.0000 </r>
       <r>   -3.2839    1.0000 </r>
       <r>   -3.2645    1.0000 </r>
       <r>   -3.2498    1.0000 </r>
       <r>   -3.2188    1.0000 </r>
       <r>   -3.1964    1.0000 </r>
       <r>   -3.1798    1.0000 </r>
       <r>   -3.1689    1.0000 </r>
       <r>   -3.1128    1.0000 </r>
       <r>   -3.0736    1.0000 </r>
       <r>   -3.0293    1.0000 </r>
       <r>   -3.0096    1.0000 </r>
       <r>   -2.9568    1.0000 </r>
       <r>   -2.8722    1.0000 </r>
       <r>   -2.8293    1.0000 </r>
       <r>   -2.6757    1.0000 </r>
       <r>   -2.6075    1.0000 </r>
       <r>   -2.0635    1.0000 </r>
       <r>   -2.0312    1.0000 </r>
       <r>   -2.0080    1.0000 </r>
       <r>   -1.9666    1.0000 </r>
       <r>   -1.8103    1.0000 </r>
       <r>   -1.7331    1.0000 </r>
       <r>   -1.2804    1.0000 </r>
       <r>   -1.2484    1.0000 </r>
       <r>    0.8327    1.0000 </r>
       <r>    0.8719    1.0000 </r>
       <r>    0.9171    1.0000 </r>
       <r>    0.9454    1.0000 </r>
       <r>    0.9584    1.0000 </r>
       <r>    0.9866    1.0000 </r>
       <r>    0.9931    1.0000 </r>
       <r>    1.0138    1.0000 </r>
       <r>    1.0188    1.0000 </r>
       <r>    1.0377    1.0000 </r>
       <r>    1.0751    1.0000 </r>
       <r>    1.0858    1.0000 </r>
       <r>    1.1749    1.0000 </r>
       <r>    1.1753    1.0000 </r>
       <r>    1.1804    1.0000 </r>
       <r>    1.1906    1.0000 </r>
       <r>    1.2355    1.0001 </r>
       <r>    1.2552    1.0001 </r>
       <r>    1.2575    1.0001 </r>
       <r>    1.2664    1.0001 </r>
       <r>    1.2744    1.0002 </r>
       <r>    1.3143    1.0005 </r>
       <r>    1.3285    1.0006 </r>
       <r>    1.3307    1.0007 </r>
       <r>    1.3861    1.0023 </r>
       <r>    1.3899    1.0025 </r>
       <r>    1.3974    1.0029 </r>
       <r>    1.4965    1.0150 </r>
       <r>    1.5472    1.0262 </r>
       <r>    1.6087    1.0355 </r>
       <r>    1.6832    1.0023 </r>
       <r>    1.7001    0.9815 </r>
       <r>    1.7598    0.8531 </r>
       <r>    1.7955    0.7353 </r>
       <r>    1.8334    0.5857 </r>
       <r>    1.8434    0.5436 </r>
       <r>    1.9069    0.2839 </r>
       <r>    1.9736    0.0805 </r>
       <r>    1.9758    0.0755 </r>
       <r>    2.0635   -0.0295 </r>
       <r>    2.1121   -0.0348 </r>
       <r>    2.1339   -0.0318 </r>
       <r>    2.1394   -0.0307 </r>
       <r>    2.1465   -0.0292 </r>
       <r>    2.1656   -0.0250 </r>
       <r>    2.1686   -0.0243 </r>
       <r>    2.2490   -0.0086 </r>
       <r>    2.2623   -0.0070 </r>
       <r>    2.2729   -0.0058 </r>
       <r>    2.4012   -0.0004 </r>
       <r>    2.4022   -0.0004 </r>
       <r>    2.4079   -0.0003 </r>
       <r>    2.4096   -0.0003 </r>
       <r>    2.4546   -0.0001 </r>
       <r>    2.5766   -0.0000 </r>
       <r>    2.9269   -0.0000 </r>
       <r>    3.1039   -0.0000 </r>
       <r>    3.2280   -0.0000 </r>
       <r>    3.2986   -0.0000 </r>
       <r>    3.3266   -0.0000 </r>
       <r>    4.1153   -0.0000 </r>
       <r>    4.5964   -0.0000 </r>
       <r>    4.9426   -0.0000 </r>
       <r>    6.2592   -0.0000 </r>
      </set>
     </set>
    </set>
   </array>
  </eigenvalues>
  <separator name="orbital magnetization" >
   <v name="MAGDIPOLOUT">      0.00000000      0.00000000      0.00000000</v>
  </separator>
  <dos>
   <i name="efermi">      1.85377166 </i>
   <total>
    <array>
     <dimension dim="1">gridpoints</dimension>
     <dimension dim="2">spin</dimension>
     <field>energy</field>
     <field>total</field>
     <field>integrated</field>
     <set>
      <set comment="spin 1">
       <r>   -24.7878     0.0000     0.0000 </r>
       <r>   -24.6777     0.0000     0.0000 </r>
       <r>   -24.5675     0.0000     0.0000 </r>
       <r>   -24.4574    -0.0000    -0.0000 </r>
       <r>   -24.3472    -0.0000    -0.0000 </r>
       <r>   -24.2371    -0.0000    -0.0000 </r>
       <r>   -24.1269    -0.0000    -0.0000 </r>
       <r>   -24.0167    -0.0000    -0.0000 </r>
       <r>   -23.9066    -0.0000    -0.0000 </r>
       <r>   -23.7964    -0.0000    -0.0000 </r>
       <r>   -23.6863    -0.0000    -0.0000 </r>
       <r>   -23.5761    -0.0000    -0.0000 </r>
       <r>   -23.4660    -0.0002    -0.0000 </r>
       <r>   -23.3558    -0.0045    -0.0005 </r>
       <r>   -23.2457    -0.0597    -0.0071 </r>
       <r>   -23.1355    -0.3727    -0.0482 </r>
       <r>   -23.0253    -0.8223    -0.1387 </r>
       <r>   -22.9152     1.2963     0.0041 </r>
       <r>   -22.8050     9.1718     1.0144 </r>
       <r>   -22.6949    18.4174     3.0432 </r>
       <r>   -22.5847    23.4030     5.6212 </r>
       <r>   -22.4746    26.4724     8.5373 </r>
       <r>   -22.3644    43.8590    13.3687 </r>
       <r>   -22.2542    79.2770    22.1016 </r>
       <r>   -22.1441    89.0524    31.9113 </r>
       <r>   -22.0339    55.7031    38.0473 </r>
       <r>   -21.9238    18.4863    40.0837 </r>
       <r>   -21.8136     1.7040    40.2714 </r>
       <r>   -21.7035    -1.4671    40.1098 </r>
       <r>   -21.5933    -0.7981    40.0219 </r>
       <r>   -21.4831    -0.2033    39.9995 </r>
       <r>   -21.3730    -0.2310    39.9741 </r>
       <r>   -21.2628    -0.7335    39.8933 </r>
       <r>   -21.1527     0.2625    39.9222 </r>
       <r>   -21.0425     7.2893    40.7252 </r>
       <r>   -20.9324    15.5839    42.4418 </r>
       <r>   -20.8222    12.3694    43.8044 </r>
       <r>   -20.7120     3.0293    44.1381 </r>
       <r>   -20.6019    -0.7026    44.0607 </r>
       <r>   -20.4917    -0.4624    44.0097 </r>
       <r>   -20.3816    -0.0816    44.0007 </r>
       <r>   -20.2714    -0.0065    44.0000 </r>
       <r>   -20.1613    -0.0003    44.0000 </r>
       <r>   -20.0511    -0.0000    44.0000 </r>
       <r>   -19.9409    -0.0000    44.0000 </r>
       <r>   -19.8308    -0.0000    44.0000 </r>
       <r>   -19.7206    -0.0000    44.0000 </r>
       <r>   -19.6105     0.0000    44.0000 </r>
       <r>   -19.5003     0.0000    44.0000 </r>
       <r>   -19.3902     0.0000    44.0000 </r>
       <r>   -19.2800     0.0000    44.0000 </r>
       <r>   -19.1699     0.0000    44.0000 </r>
       <r>   -19.0597     0.0000    44.0000 </r>
       <r>   -18.9495     0.0000    44.0000 </r>
       <r>   -18.8394     0.0000    44.0000 </r>
       <r>   -18.7292     0.0000    44.0000 </r>
       <r>   -18.6191     0.0000    44.0000 </r>
       <r>   -18.5089     0.0000    44.0000 </r>
       <r>   -18.3988     0.0000    44.0000 </r>
       <r>   -18.2886     0.0000    44.0000 </r>
       <r>   -18.1784    -0.0000    44.0000 </r>
       <r>   -18.0683    -0.0000    44.0000 </r>
       <r>   -17.9581    -0.0000    44.0000 </r>
       <r>   -17.8480    -0.0000    44.0000 </r>
       <r>   -17.7378    -0.0000    44.0000 </r>
       <r>   -17.6277    -0.0000    44.0000 </r>
       <r>   -17.5175    -0.0000    44.0000 </r>
       <r>   -17.4073    -0.0000    44.0000 </r>
       <r>   -17.2972    -0.0000    44.0000 </r>
       <r>   -17.1870    -0.0008    43.9999 </r>
       <r>   -17.0769    -0.0159    43.9982 </r>
       <r>   -16.9667    -0.1577    43.9808 </r>
       <r>   -16.8566    -0.6586    43.9082 </r>
       <r>   -16.7464    -0.2115    43.8849 </r>
       <r>   -16.6362     5.7957    44.5234 </r>
       <r>   -16.5261    14.9092    46.1657 </r>
       <r>   -16.4159    13.6838    47.6731 </r>
       <r>   -16.3058     4.1955    48.1352 </r>
       <r>   -16.1956    -0.5542    48.0742 </r>
       <r>   -16.0855    -0.5527    48.0133 </r>
       <r>   -15.9753    -0.1106    48.0011 </r>
       <r>   -15.8652    -0.0098    48.0000 </r>
       <r>   -15.7550    -0.0004    48.0000 </r>
       <r>   -15.6448    -0.0000    48.0000 </r>
       <r>   -15.5347    -0.0000    48.0000 </r>
       <r>   -15.4245    -0.0000    48.0000 </r>
       <r>   -15.3144    -0.0000    48.0000 </r>
       <r>   -15.2042    -0.0000    48.0000 </r>
       <r>   -15.0941     0.0000    48.0000 </r>
       <r>   -14.9839     0.0000    48.0000 </r>
       <r>   -14.8737     0.0000    48.0000 </r>
       <r>   -14.7636     0.0000    48.0000 </r>
       <r>   -14.6534     0.0000    48.0000 </r>
       <r>   -14.5433     0.0000    48.0000 </r>
       <r>   -14.4331     0.0000    48.0000 </r>
       <r>   -14.3230     0.0000    48.0000 </r>
       <r>   -14.2128     0.0000    48.0000 </r>
       <r>   -14.1026     0.0000    48.0000 </r>
       <r>   -13.9925     0.0000    48.0000 </r>
       <r>   -13.8823     0.0000    48.0000 </r>
       <r>   -13.7722     0.0000    48.0000 </r>
       <r>   -13.6620     0.0000    48.0000 </r>
       <r>   -13.5519     0.0000    48.0000 </r>
       <r>   -13.4417     0.0000    48.0000 </r>
       <r>   -13.3315     0.0000    48.0000 </r>
       <r>   -13.2214     0.0000    48.0000 </r>
       <r>   -13.1112     0.0000    48.0000 </r>
       <r>   -13.0011     0.0000    48.0000 </r>
       <r>   -12.8909     0.0000    48.0000 </r>
       <r>   -12.7808     0.0000    48.0000 </r>
       <r>   -12.6706     0.0000    48.0000 </r>
       <r>   -12.5604     0.0000    48.0000 </r>
       <r>   -12.4503     0.0000    48.0000 </r>
       <r>   -12.3401     0.0000    48.0000 </r>
       <r>   -12.2300     0.0000    48.0000 </r>
       <r>   -12.1198     0.0000    48.0000 </r>
       <r>   -12.0097     0.0000    48.0000 </r>
       <r>   -11.8995     0.0000    48.0000 </r>
       <r>   -11.7894     0.0000    48.0000 </r>
       <r>   -11.6792     0.0000    48.0000 </r>
       <r>   -11.5690     0.0000    48.0000 </r>
       <r>   -11.4589     0.0000    48.0000 </r>
       <r>   -11.3487     0.0000    48.0000 </r>
       <r>   -11.2386     0.0000    48.0000 </r>
       <r>   -11.1284     0.0000    48.0000 </r>
       <r>   -11.0183     0.0000    48.0000 </r>
       <r>   -10.9081     0.0000    48.0000 </r>
       <r>   -10.7979     0.0000    48.0000 </r>
       <r>   -10.6878     0.0000    48.0000 </r>
       <r>   -10.5776     0.0000    48.0000 </r>
       <r>   -10.4675     0.0000    48.0000 </r>
       <r>   -10.3573     0.0000    48.0000 </r>
       <r>   -10.2472     0.0000    48.0000 </r>
       <r>   -10.1370     0.0000    48.0000 </r>
       <r>   -10.0268     0.0000    48.0000 </r>
       <r>    -9.9167     0.0000    48.0000 </r>
       <r>    -9.8065     0.0000    48.0000 </r>
       <r>    -9.6964     0.0000    48.0000 </r>
       <r>    -9.5862     0.0000    48.0000 </r>
       <r>    -9.4761     0.0000    48.0000 </r>
       <r>    -9.3659     0.0000    48.0000 </r>
       <r>    -9.2557     0.0000    48.0000 </r>
       <r>    -9.1456     0.0000    48.0000 </r>
       <r>    -9.0354     0.0000    48.0000 </r>
       <r>    -8.9253     0.0000    48.0000 </r>
       <r>    -8.8151     0.0000    48.0000 </r>
       <r>    -8.7050     0.0000    48.0000 </r>
       <r>    -8.5948     0.0000    48.0000 </r>
       <r>    -8.4846     0.0000    48.0000 </r>
       <r>    -8.3745     0.0000    48.0000 </r>
       <r>    -8.2643     0.0000    48.0000 </r>
       <r>    -8.1542     0.0000    48.0000 </r>
       <r>    -8.0440     0.0000    48.0000 </r>
       <r>    -7.9339     0.0000    48.0000 </r>
       <r>    -7.8237    -0.0000    48.0000 </r>
       <r>    -7.7136    -0.0000    48.0000 </r>
       <r>    -7.6034    -0.0000    48.0000 </r>
       <r>    -7.4932    -0.0000    48.0000 </r>
       <r>    -7.3831    -0.0000    48.0000 </r>
       <r>    -7.2729    -0.0000    48.0000 </r>
       <r>    -7.1628    -0.0000    48.0000 </r>
       <r>    -7.0526    -0.0000    48.0000 </r>
       <r>    -6.9425    -0.0000    48.0000 </r>
       <r>    -6.8323    -0.0006    47.9999 </r>
       <r>    -6.7221    -0.0113    47.9987 </r>
       <r>    -6.6120    -0.1116    47.9864 </r>
       <r>    -6.5018    -0.4880    47.9326 </r>
       <r>    -6.3917    -0.3889    47.8898 </r>
       <r>    -6.2815     3.4738    48.2725 </r>
       <r>    -6.1714    11.1936    49.5055 </r>
       <r>    -6.0612    15.1242    51.1715 </r>
       <r>    -5.9510    15.1934    52.8452 </r>
       <r>    -5.8409    16.4690    54.6594 </r>
       <r>    -5.7307    14.7076    56.2795 </r>
       <r>    -5.6206    11.0084    57.4922 </r>
       <r>    -5.5104    13.2051    58.9468 </r>
       <r>    -5.4003    21.3068    61.2939 </r>
       <r>    -5.2901    24.7794    64.0235 </r>
       <r>    -5.1799    19.6786    66.1912 </r>
       <r>    -5.0698    11.7782    67.4887 </r>
       <r>    -4.9596     4.0822    67.9383 </r>
       <r>    -4.8495    -0.7379    67.8571 </r>
       <r>    -4.7393     3.1822    68.2076 </r>
       <r>    -4.6292    16.0952    69.9806 </r>
       <r>    -4.5190    29.3496    73.2137 </r>
       <r>    -4.4089    50.8076    78.8105 </r>
       <r>    -4.2987    90.2864    88.7561 </r>
       <r>    -4.1885   116.1550   101.5514 </r>
       <r>    -4.0784   102.3252   112.8232 </r>
       <r>    -3.9682    66.0059   120.0942 </r>
       <r>    -3.8581    35.9360   124.0528 </r>
       <r>    -3.7479    21.9305   126.4685 </r>
       <r>    -3.6378    28.3491   129.5914 </r>
       <r>    -3.5276    47.1286   134.7829 </r>
       <r>    -3.4174    52.0049   140.5116 </r>
       <r>    -3.3073    51.2099   146.1527 </r>
       <r>    -3.1971    62.5071   153.0383 </r>
       <r>    -3.0870    65.0904   160.2085 </r>
       <r>    -2.9768    50.8336   165.8081 </r>
       <r>    -2.8667    34.2896   169.5853 </r>
       <r>    -2.7565    23.0649   172.1261 </r>
       <r>    -2.6463    18.2475   174.1362 </r>
       <r>    -2.5362    13.1975   175.5900 </r>
       <r>    -2.4260     4.2420   176.0573 </r>
       <r>    -2.3159    -1.6932   175.8708 </r>
       <r>    -2.2057     0.6297   175.9401 </r>
       <r>    -2.0956    14.9234   177.5840 </r>
       <r>    -1.9854    30.3929   180.9320 </r>
       <r>    -1.8752    29.1482   184.1429 </r>
       <r>    -1.7651    20.0061   186.3467 </r>
       <r>    -1.6549    11.8948   187.6570 </r>
       <r>    -1.5448     3.1090   187.9995 </r>
       <r>    -1.4346     0.7638   188.0836 </r>
       <r>    -1.3245     8.8561   189.0592 </r>
       <r>    -1.2143    15.9179   190.8126 </r>
       <r>    -1.1041    10.3276   191.9503 </r>
       <r>    -0.9940     1.6438   192.1314 </r>
       <r>    -0.8838    -0.7927   192.0440 </r>
       <r>    -0.7737    -0.3454   192.0060 </r>
       <r>    -0.6635    -0.0507   192.0004 </r>
       <r>    -0.5534    -0.0035   192.0000 </r>
       <r>    -0.4432    -0.0001   192.0000 </r>
       <r>    -0.3331    -0.0000   192.0000 </r>
       <r>    -0.2229    -0.0000   192.0000 </r>
       <r>    -0.1127    -0.0000   192.0000 </r>
       <r>    -0.0026    -0.0000   192.0000 </r>
       <r>     0.1076    -0.0000   192.0000 </r>
       <r>     0.2177    -0.0016   191.9998 </r>
       <r>     0.3279    -0.0296   191.9966 </r>
       <r>     0.4380    -0.2932   191.9643 </r>
       <r>     0.5482    -1.4199   191.8079 </r>
       <r>     0.6584    -2.3552   191.5484 </r>
       <r>     0.7685     6.0487   192.2147 </r>
       <r>     0.8787    35.3584   196.1097 </r>
       <r>     0.9888    72.1412   204.0565 </r>
       <r>     1.0990    89.5459   213.9206 </r>
       <r>     1.2091    96.6166   224.5636 </r>
       <r>     1.3193    99.7152   235.5479 </r>
       <r>     1.4295    77.2969   244.0626 </r>
       <r>     1.5396    44.9242   249.0113 </r>
       <r>     1.6498    34.6203   252.8250 </r>
       <r>     1.7599    42.5549   257.5127 </r>
       <r>     1.8701    47.7604   262.7738 </r>
       <r>     1.9802    47.5043   268.0068 </r>
       <r>     2.0904    57.5069   274.3415 </r>
       <r>     2.2006    70.4740   282.1047 </r>
       <r>     2.3107    66.8633   289.4702 </r>
       <r>     2.4209    55.9417   295.6325 </r>
       <r>     2.5310    39.5703   299.9915 </r>
       <r>     2.6412    16.8325   301.8457 </r>
       <r>     2.7513     2.9097   302.1662 </r>
       <r>     2.8615     2.7328   302.4672 </r>
       <r>     2.9717     8.0528   303.3543 </r>
       <r>     3.0818    12.2935   304.7085 </r>
       <r>     3.1920    18.6647   306.7646 </r>
       <r>     3.3021    24.6354   309.4783 </r>
       <r>     3.4123    18.8225   311.5517 </r>
       <r>     3.5224     5.7221   312.1820 </r>
       <r>     3.6326    -0.6995   312.1050 </r>
       <r>     3.7427    -0.9804   311.9970 </r>
       <r>     3.8529    -0.5797   311.9331 </r>
       <r>     3.9631     0.9806   312.0412 </r>
       <r>     4.0732     5.5376   312.6512 </r>
       <r>     4.1834     7.9593   313.5279 </r>
       <r>     4.2935     3.9734   313.9656 </r>
       <r>     4.4037     0.4706   314.0175 </r>
       <r>     4.5138     3.1948   314.3694 </r>
       <r>     4.6240     7.4134   315.1861 </r>
       <r>     4.7342     6.0624   315.8539 </r>
       <r>     4.8443     4.4138   316.3401 </r>
       <r>     4.9545     7.1689   317.1298 </r>
       <r>     5.0646     6.5703   317.8535 </r>
       <r>     5.1748     1.9639   318.0699 </r>
       <r>     5.2849    -0.3067   318.0361 </r>
       <r>     5.3951    -0.2708   318.0063 </r>
       <r>     5.5053    -0.0522   318.0005 </r>
       <r>     5.6154    -0.0049   318.0000 </r>
       <r>     5.7256    -0.0093   317.9989 </r>
       <r>     5.8357    -0.0880   317.9892 </r>
       <r>     5.9459    -0.3494   317.9508 </r>
       <r>     6.0560    -0.0374   317.9466 </r>
       <r>     6.1662     3.2040   318.2996 </r>
       <r>     6.2764     7.6728   319.1448 </r>
       <r>     6.3865     6.5979   319.8716 </r>
       <r>     6.4967     1.8054   320.0705 </r>
       <r>     6.6068    -0.3326   320.0338 </r>
       <r>     6.7170    -0.2559   320.0056 </r>
       <r>     6.8271    -0.0472   320.0004 </r>
       <r>     6.9373    -0.0039   320.0000 </r>
       <r>     7.0474    -0.0002   320.0000 </r>
       <r>     7.1576    -0.0000   320.0000 </r>
       <r>     7.2678    -0.0000   320.0000 </r>
       <r>     7.3779    -0.0000   320.0000 </r>
       <r>     7.4881    -0.0000   320.0000 </r>
       <r>     7.5982     0.0000   320.0000 </r>
       <r>     7.7084     0.0000   320.0000 </r>
       <r>     7.8185     0.0000   320.0000 </r>
       <r>     7.9287     0.0000   320.0000 </r>
       <r>     8.0389     0.0000   320.0000 </r>
       <r>     8.1490     0.0000   320.0000 </r>
       <r>     8.2592     0.0000   320.0000 </r>
      </set>
     </set>
    </array>
   </total>
  </dos>
 </calculation>
 <structure name="finalpos" >
  <crystal>
   <varray name="basis" >
    <v>       3.25262800       0.00000000       0.00000000 </v>
    <v>       0.00000000      20.54938400      -0.03082000 </v>
    <v>       0.00000000       0.00000000       6.79221100 </v>
   </varray>
   <i name="volume">    453.98799923 </i>
   <varray name="rec_basis" >
    <v>       0.30744370       0.00000000       0.00000000 </v>
    <v>       0.00000000       0.04866326       0.00000000 </v>
    <v>       0.00000000       0.00022081       0.14722746 </v>
   </varray>
  </crystal>
  <varray name="positions" >
   <v>       0.00000000       0.16671900       0.50139100 </v>
   <v>       0.00000000       0.83328100       0.50139100 </v>
   <v>       0.00088600       0.66671900       0.00139100 </v>
   <v>       0.00000000       0.33328100       0.00139100 </v>
   <v>       0.50000000       0.16958500       0.00000400 </v>
   <v>       0.50000000       0.83397900       0.00000400 </v>
   <v>       0.50000000       0.66602100       0.50000400 </v>
   <v>       0.50000000       0.33397900       0.50000400 </v>
   <v>       0.00000000       0.00000000       0.01216200 </v>
   <v>       0.00000000       0.50000000       0.51216200 </v>
   <v>       0.50000000       0.00000000       0.47240000 </v>
   <v>       0.50000000       0.50000000       0.97240000 </v>
   <v>       0.00000000       0.00000000       0.31436200 </v>
   <v>       0.00000000       0.50000000       0.81436200 </v>
   <v>       0.00678400       0.16816900       0.20329900 </v>
   <v>       0.00000000       0.83183100       0.20329900 </v>
   <v>       0.00000000       0.66816900       0.70329900 </v>
   <v>       0.00000000       0.33183100       0.70329900 </v>
   <v>       0.00260700       0.16838200       0.79921200 </v>
   <v>       0.00000000       0.83161800       0.79934600 </v>
   <v>       0.00000000       0.66838200       0.29934600 </v>
   <v>       0.00000000       0.33161800       0.29934600 </v>
   <v>       0.50000000       0.06837200       0.99633700 </v>
   <v>       0.50000000       0.93162800       0.99633700 </v>
   <v>       0.49410500       0.56837200       0.49633700 </v>
   <v>       0.50000000       0.43162800       0.49633700 </v>
   <v>       0.50914700       0.09818400       0.50359800 </v>
   <v>       0.50000000       0.90181600       0.50567900 </v>
   <v>       0.49726800       0.59818400       0.00567900 </v>
   <v>       0.50000000       0.40181600       0.00776700 </v>
   <v>       0.50000000       0.23406000       0.50152500 </v>
   <v>       0.50000000       0.76594000       0.50152500 </v>
   <v>       0.50000000       0.73406000       0.00152500 </v>
   <v>       0.50000000       0.26594000       0.00152500 </v>
   <v>       0.99556600       0.00000000       0.68939000 </v>
   <v>       0.00000000       0.50000000       0.19474100 </v>
  </varray>
 </structure>
</modeling>
