 vasp.5.3.5 31Mar14 (build Aug 29 2014 19:41:47) complex                        
  
 executed on             LinuxIFC date 2019.01.22  17:58:42
 running on    1 total cores
 distrk:  each k-point on    1 cores,    1 groups
 distr:  one band on NCORES_PER_BAND=   1 cores,    1 groups


--------------------------------------------------------------------------------------------------------


 INCAR:
 POTCAR:    PAW_PBE Fe 06Sep2000                  
 POTCAR:    PAW_PBE O 08Apr2002                   
 POTCAR:    PAW_PBE F 08Apr2002                   
 POTCAR:    PAW_PBE Fe 06Sep2000                  
   VRHFIN =Fe:  d7 s1                                                           
   LEXCH  = PE                                                                  
   EATOM  =   594.3153 eV,   43.6809 Ry                                         
                                                                                
   TITEL  = PAW_PBE Fe 06Sep2000                                                
   LULTRA =        F    use ultrasoft PP ?                                      
   IUNSCR =        1    unscreen: 0-lin 1-nonlin 2-no                           
   RPACOR =    2.000    partial core radius                                     
   POMASS =   55.847; ZVAL   =    8.000    mass and valenz                      
   RCORE  =    2.300    outmost cutoff radius                                   
   RWIGS  =    2.460; RWIGS  =    1.302    wigner-seitz radius (au A)           
   ENMAX  =  267.882; ENMIN  =  200.911 eV                                      
   RCLOC  =    1.701    cutoff for local pot                                    
   LCOR   =        T    correct aug charges                                     
   LPAW   =        T    paw PP                                                  
   EAUG   =  511.368                                                            
   DEXC   =    0.000                                                            
   RMAX   =    2.356    core radius for proj-oper                               
   RAUG   =    1.300    factor for augmentation sphere                          
   RDEP   =    2.442    radius for radial grids                                 
   RDEPT  =    1.890    core radius for aug-charge                              
                                                                                
   Atomic configuration                                                         
    9 entries                                                                   
     n  l   j            E        occ.                                          
     1  0  0.50     -6993.8440   2.0000                                         
     2  0  0.50      -814.6047   2.0000                                         
     2  1  1.50      -693.3689   6.0000                                         
     3  0  0.50       -89.4732   2.0000                                         
     3  1  1.50       -55.6373   6.0000                                         
     3  2  2.50        -3.8151   7.0000                                         
     4  0  0.50        -4.2551   1.0000                                         
     4  1  1.50        -3.4015   0.0000                                         
     4  3  2.50        -1.3606   0.0000                                         
   Description                                                                  
     l       E           TYP  RCUT    TYP  RCUT                                 
     2     -3.8151135     23  2.300                                             
     2     -5.1756961     23  2.300                                             
     0     -4.2550963     23  2.300                                             
     0      7.2035603     23  2.300                                             
     1     -2.7211652     23  2.300                                             
     1     18.4316424     23  2.300                                             
  local pseudopotential read in
  partial core-charges read in
  partial kinetic energy density read in
  atomic valenz-charges read in
  non local Contribution for L=           2  read in
    real space projection operators read in
  non local Contribution for L=           2  read in
    real space projection operators read in
  non local Contribution for L=           0  read in
    real space projection operators read in
  non local Contribution for L=           0  read in
    real space projection operators read in
  non local Contribution for L=           1  read in
    real space projection operators read in
  non local Contribution for L=           1  read in
    real space projection operators read in
    PAW grid and wavefunctions read in
 
   number of l-projection  operators is LMAX  =           6
   number of lm-projection operators is LMMAX =          18
 
 POTCAR:    PAW_PBE O 08Apr2002                   
   VRHFIN =O: s2p4                                                              
   LEXCH  = PE                                                                  
   EATOM  =   432.3788 eV,   31.7789 Ry                                         
                                                                                
   TITEL  = PAW_PBE O 08Apr2002                                                 
   LULTRA =        F    use ultrasoft PP ?                                      
   IUNSCR =        1    unscreen: 0-lin 1-nonlin 2-no                           
   RPACOR =    1.200    partial core radius                                     
   POMASS =   16.000; ZVAL   =    6.000    mass and valenz                      
   RCORE  =    1.520    outmost cutoff radius                                   
   RWIGS  =    1.550; RWIGS  =    0.820    wigner-seitz radius (au A)           
   ENMAX  =  400.000; ENMIN  =  300.000 eV                                      
   ICORE  =        2    local potential                                         
   LCOR   =        T    correct aug charges                                     
   LPAW   =        T    paw PP                                                  
   EAUG   =  605.392                                                            
   DEXC   =    0.000                                                            
   RMAX   =    1.553    core radius for proj-oper                               
   RAUG   =    1.300    factor for augmentation sphere                          
   RDEP   =    1.550    radius for radial grids                                 
   RDEPT  =    1.329    core radius for aug-charge                              
                                                                                
   Atomic configuration                                                         
    4 entries                                                                   
     n  l   j            E        occ.                                          
     1  0  0.50      -514.6923   2.0000                                         
     2  0  0.50       -23.9615   2.0000                                         
     2  1  0.50        -9.0305   4.0000                                         
     3  2  1.50        -9.5241   0.0000                                         
   Description                                                                  
     l       E           TYP  RCUT    TYP  RCUT                                 
     0    -23.9615318     23  1.200                                             
     0     -9.5240782     23  1.200                                             
     1     -9.0304911     23  1.520                                             
     1      8.1634956     23  1.520                                             
     2     -9.5240782      7  1.500                                             
  local pseudopotential read in
  partial core-charges read in
  partial kinetic energy density read in
  kinetic energy density of atom read in
  atomic valenz-charges read in
  non local Contribution for L=           0  read in
    real space projection operators read in
  non local Contribution for L=           0  read in
    real space projection operators read in
  non local Contribution for L=           1  read in
    real space projection operators read in
  non local Contribution for L=           1  read in
    real space projection operators read in
    PAW grid and wavefunctions read in
 
   number of l-projection  operators is LMAX  =           4
   number of lm-projection operators is LMMAX =           8
 
 POTCAR:    PAW_PBE F 08Apr2002                   
   VRHFIN =F: s2p5                                                              
   LEXCH  = PE                                                                  
   EATOM  =   659.6475 eV,   48.4827 Ry                                         
                                                                                
   TITEL  = PAW_PBE F 08Apr2002                                                 
   LULTRA =        F    use ultrasoft PP ?                                      
   IUNSCR =        1    unscreen: 0-lin 1-nonlin 2-no                           
   RPACOR =    1.200    partial core radius                                     
   POMASS =   18.998; ZVAL   =    7.000    mass and valenz                      
   RCORE  =    1.520    outmost cutoff radius                                   
   RWIGS  =    1.500; RWIGS  =    0.794    wigner-seitz radius (au A)           
   ENMAX  =  400.000; ENMIN  =  300.000 eV                                      
   ICORE  =        2    local potential                                         
   LCOR   =        T    correct aug charges                                     
   LPAW   =        T    paw PP                                                  
   EAUG   =  613.614                                                            
   RMAX   =    1.555    core radius for proj-oper                               
   RAUG   =    1.300    factor for augmentation sphere                          
   RDEP   =    1.539    radius for radial grids                                 
   RDEPT  =    1.299    core radius for aug-charge                              
                                                                                
   Atomic configuration                                                         
    4 entries                                                                   
     n  l   j            E        occ.                                          
     1  0  0.50      -663.3661   2.0000                                         
     2  0  0.50       -29.8995   2.0000                                         
     2  1  0.50       -11.1114   5.0000                                         
     3  2  1.50       -10.8847   0.0000                                         
   Description                                                                  
     l       E           TYP  RCUT    TYP  RCUT                                 
     0    -29.8995018     23  1.200                                             
     0     -9.5240782     23  1.200                                             
     1    -11.1113914     23  1.520                                             
     1      1.3605826     23  1.520                                             
     2    -10.8846608      7  1.500                                             
  local pseudopotential read in
  partial core-charges read in
  partial kinetic energy density read in
  atomic valenz-charges read in
  non local Contribution for L=           0  read in
    real space projection operators read in
  non local Contribution for L=           0  read in
    real space projection operators read in
  non local Contribution for L=           1  read in
    real space projection operators read in
  non local Contribution for L=           1  read in
    real space projection operators read in
    PAW grid and wavefunctions read in
 
   number of l-projection  operators is LMAX  =           4
   number of lm-projection operators is LMMAX =           8
 
 Optimization of the real space projectors (new method)

 maximal supplied QI-value         = 16.25
 optimisation between [QCUT,QGAM] = [ 10.24, 20.48] = [ 29.35,117.42] Ry 
 Optimized for a Real-space Cutoff    1.51 Angstroem

   l    n(q)    QCUT    max X(q) W(low)/X(q) W(high)/X(q)  e(spline) 
   2      8    10.239    80.901    0.43E-03    0.67E-03    0.20E-06
   2      8    10.239    75.754    0.44E-03    0.68E-03    0.20E-06
   0      9    10.239    58.752    0.81E-04    0.41E-04    0.71E-07
   0      9    10.239    30.679    0.75E-04    0.39E-04    0.65E-07
   1      9    10.239    17.977    0.50E-04    0.16E-03    0.11E-06
   1      9    10.239    13.559    0.39E-04    0.13E-03    0.98E-07
 Optimization of the real space projectors (new method)

 maximal supplied QI-value         = 24.76
 optimisation between [QCUT,QGAM] = [ 10.15, 20.30] = [ 28.85,115.39] Ry 
 Optimized for a Real-space Cutoff    1.38 Angstroem

   l    n(q)    QCUT    max X(q) W(low)/X(q) W(high)/X(q)  e(spline) 
   0      8    10.150    20.381    0.22E-03    0.32E-03    0.29E-06
   0      8    10.150    15.268    0.23E-03    0.35E-03    0.30E-06
   1      8    10.150     5.964    0.46E-03    0.53E-03    0.21E-06
   1      8    10.150     5.382    0.38E-03    0.45E-03    0.19E-06
 Optimization of the real space projectors (new method)

 maximal supplied QI-value         = 24.76
 optimisation between [QCUT,QGAM] = [ 10.15, 20.30] = [ 28.85,115.39] Ry 
 Optimized for a Real-space Cutoff    1.38 Angstroem

   l    n(q)    QCUT    max X(q) W(low)/X(q) W(high)/X(q)  e(spline) 
   0      8    10.150    14.049    0.15E-03    0.22E-03    0.24E-06
   0      8    10.150     8.945    0.21E-03    0.31E-03    0.30E-06
   1      8    10.150     7.086    0.42E-03    0.48E-03    0.23E-06
   1      8    10.150     6.747    0.37E-03    0.43E-03    0.21E-06
  PAW_PBE Fe 06Sep2000                  :
 energy of atom  1       EATOM= -594.3153
 kinetic energy error for atom=    0.0088 (will be added to EATOM!!)
  PAW_PBE O 08Apr2002                   :
 energy of atom  2       EATOM= -432.3788
 kinetic energy error for atom=    0.1156 (will be added to EATOM!!)
  PAW_PBE F 08Apr2002                   :
 energy of atom  3       EATOM= -659.6475
 kinetic energy error for atom=    0.1978 (will be added to EATOM!!)
 
 
 POSCAR: Fe8 O2 F14                              
  positions in direct lattice
  No initial velocities read in
 exchange correlation table for  LEXCH =        8
   RHO(1)=    0.500       N(1)  =     2000
   RHO(2)=  100.500       N(2)  =     4000
 


--------------------------------------------------------------------------------------------------------


 ion  position               nearest neighbor table
   1  0.247  0.249  0.745-  12 2.05  13 2.05  18 2.05  15 2.13  19 2.13  23 2.14
   2  0.247  0.751  0.246-  17 2.04  11 2.05  16 2.11  24 2.12  14 2.13  20 2.15
   3  0.515  0.245  0.493-   9 2.04  16 2.05  22 2.11  17 2.15  19 2.21  13 2.26   5 3.00
   4  0.515  0.755  0.999-  15 2.07  10 2.10  21 2.10  14 2.17  20 2.17  18 2.21   6 3.06
   5  0.754  0.231  0.265-   9 1.84  20 1.98  24 2.00  11 2.03  17 2.04  21 2.12   3 3.00
   6  0.754  0.769  0.765-  10 1.84  23 1.98  19 2.01  12 2.03  18 2.04  22 2.13   4 3.06
   7  0.990  0.241  0.997-  10 1.98  14 2.10  15 2.16  23 2.17  21 2.19  11 2.20
   8  0.990  0.759  0.498-   9 2.01  13 2.11  16 2.16  24 2.18  12 2.19  22 2.19
   9  0.779  0.058  0.417-   5 1.84   8 2.01   3 2.04
  10  0.785  0.942  0.917-   6 1.84   7 1.98   4 2.10
  11  0.014  0.058  0.183-   5 2.03   2 2.05   7 2.20
  12  0.014  0.942  0.683-   6 2.03   1 2.05   8 2.19
  13  0.222  0.449  0.578-   1 2.05   8 2.11   3 2.26
  14  0.227  0.551  0.071-   7 2.10   2 2.13   4 2.17
  15  0.279  0.052  0.922-   4 2.07   1 2.13   7 2.16
  16  0.279  0.947  0.422-   3 2.05   2 2.11   8 2.16
  17  0.482  0.454  0.316-   5 2.04   2 2.04   3 2.15
  18  0.482  0.546  0.816-   6 2.04   1 2.05   4 2.21
  19  0.523  0.036  0.674-   6 2.01   1 2.13   3 2.21
  20  0.523  0.973  0.174-   5 1.98   2 2.15   4 2.17
  21  0.722  0.438  0.091-   4 2.10   5 2.12   7 2.19
  22  0.722  0.557  0.591-   3 2.11   6 2.13   8 2.19
  23  0.969  0.457  0.820-   6 1.98   1 2.14   7 2.17
  24  0.973  0.543  0.320-   5 2.00   2 2.12   8 2.18
 

IMPORTANT INFORMATION: All symmetrisations will be switched off!
NOSYMM: (Re-)initialisation of all symmetry stuff for point group C_1.

 
 
 KPOINTS: Automatic mesh                          

Automatic generation of k-mesh.
Space group operators:
 irot       det(A)        alpha          n_x          n_y          n_z        tau_x        tau_y        tau_z
    1     1.000000     0.000000     1.000000     0.000000     0.000000     0.000000     0.000000     0.000000
 
 Subroutine IBZKPT returns following result:
 ===========================================
 
 Found      8 irreducible k-points:
 
 Following reciprocal coordinates:
            Coordinates               Weight
  0.000000  0.000000  0.000000      1.000000
  0.500000  0.000000  0.000000      1.000000
  0.000000  0.500000  0.000000      1.000000
  0.500000  0.500000  0.000000      1.000000
 -0.000000  0.000000  0.500000      1.000000
  0.500000  0.000000  0.500000      1.000000
 -0.000000  0.500000  0.500000      1.000000
  0.500000  0.500000  0.500000      1.000000
 
 Following cartesian coordinates:
            Coordinates               Weight
  0.000000  0.000000  0.000000      1.000000
  0.087170  0.000000  0.000000      1.000000
  0.000000  0.104484  0.000000      1.000000
  0.087170  0.104484  0.000000      1.000000
  0.006329  0.000000  0.045939      1.000000
  0.093499  0.000000  0.045939      1.000000
  0.006329  0.104484  0.045939      1.000000
  0.093499  0.104484  0.045939      1.000000
 


--------------------------------------------------------------------------------------------------------




 Dimension of arrays:
   k-points           NKPTS =      8   k-points in BZ     NKDIM =      8   number of bands    NBANDS=    104
   number of dos      NEDOS =    301   number of ions     NIONS =     24
   non local maximal  LDIM  =      6   non local SUM 2l+1 LMDIM =     18
   total plane-waves  NPLWV =  36288
   max r-space proj   IRMAX =   1796   max aug-charges    IRDMAX=   4526
   dimension x,y,z NGX =    28 NGY =   24 NGZ =   54
   dimension x,y,z NGXF=    56 NGYF=   48 NGZF=  108
   support grid    NGXF=    56 NGYF=   48 NGZF=  108
   ions per type =               8   2  14
 NGX,Y,Z   is equivalent  to a cutoff of   8.04,  8.34,  8.25 a.u.
 NGXF,Y,Z  is equivalent  to a cutoff of  16.08, 16.68, 16.50 a.u.


 I would recommend the setting:
   dimension x,y,z NGX =    28 NGY =   23 NGZ =   53
 SYSTEM =  tssm                                    
 POSCAR =  Fe8 O2 F14                              

 Startparameter for this run:
   NWRITE =      2    write-flag & timer
   PREC   = normal    normal or accurate (medium, high low for compatibility)
   ISTART =      0    job   : 0-new  1-cont  2-samecut
   ICHARG =      2    charge: 1-file 2-atom 10-const
   ISPIN  =      1    spin polarized calculation?
   LNONCOLLINEAR =      F non collinear calculations
   LSORBIT =      F    spin-orbit coupling
   INIWAV =      1    electr: 0-lowe 1-rand  2-diag
   LASPH  =      F    aspherical Exc in radial PAW
   METAGGA=      F    non-selfconsistent MetaGGA calc.

 Electronic Relaxation 1
   ENCUT  =  400.0 eV  29.40 Ry    5.42 a.u.   9.44  7.80 17.75*2*pi/ulx,y,z
   ENINI  =  400.0     initial cutoff
   ENAUG  =  613.6 eV  augmentation charge cutoff
   NELM   =    300;   NELMIN=  2; NELMDL=-12     # of ELM steps 
   EDIFF  = 0.1E-03   stopping-criterion for ELM
   LREAL  =      T    real-space projection
   NLSPLINE    = F    spline interpolate recip. space projectors
   LCOMPAT=      F    compatible to vasp.4.4
   GGA_COMPAT  = T    GGA compatible to vasp.4.4-vasp.4.6
   LMAXPAW     = -100 max onsite density
   LMAXMIX     =    2 max onsite mixed and CHGCAR
   VOSKOWN=      0    Vosko Wilk Nusair interpolation
   ROPT   =   -0.00050  -0.00050  -0.00050
 Ionic relaxation
   EDIFFG = 0.1E-02   stopping-criterion for IOM
   NSW    =      1    number of steps for IOM
   NBLOCK =      1;   KBLOCK =      1    inner block; outer block 
   IBRION =      1    ionic relax: 0-MD 1-quasi-New 2-CG
   NFREE  =      0    steps in history (QN), initial steepest desc. (CG)
   ISIF   =      2    stress and relaxation
   IWAVPR =     11    prediction:  0-non 1-charg 2-wave 3-comb
   ISYM   =      0    0-nonsym 1-usesym 2-fastsym
   LCORR  =      T    Harris-Foulkes like correction to forces

   POTIM  = 0.5000    time-step for ionic-motion
   TEIN   =    0.0    initial temperature
   TEBEG  =    0.0;   TEEND  =   0.0 temperature during run
   SMASS  =  -3.00    Nose mass-parameter (am)
   estimated Nose-frequenzy (Omega)   =  0.10E-29 period in steps =****** mass=  -0.766E-27a.u.
   SCALEE = 1.0000    scale energy and forces
   NPACO  =    256;   APACO  = 16.0  distance and # of slots for P.C.
   PSTRESS=    0.0 pullay stress

  Mass of Ions in am
   POMASS =  55.85 16.00 19.00
  Ionic Valenz
   ZVAL   =   8.00  6.00  7.00
  Atomic Wigner-Seitz radii
   RWIGS  =  -1.00 -1.00 -1.00
  virtual crystal weights 
   VCA    =   1.00  1.00  1.00
   NELECT =     174.0000    total number of electrons
   NUPDOWN=      -1.0000    fix difference up-down

 DOS related values:
   EMIN   =  10.00;   EMAX   =-10.00  energy-range for DOS
   EFERMI =   0.00
   ISMEAR =     1;   SIGMA  =   0.20  broadening in eV -4-tet -1-fermi 0-gaus

 Electronic relaxation 2 (details)
   IALGO  =     48    algorithm
   LDIAG  =      T    sub-space diagonalisation (order eigenvalues)
   LSUBROT=      F    optimize rotation matrix (better conditioning)
   TURBO    =      0    0=normal 1=particle mesh
   IRESTART =      0    0=no restart 2=restart with 2 vectors
   NREBOOT  =      0    no. of reboots
   NMIN     =      0    reboot dimension
   EREF     =   0.00    reference energy to select bands
   IMIX   =      4    mixing-type and parameters
     AMIX     =   0.40;   BMIX     =  1.00
     AMIX_MAG =   1.60;   BMIX_MAG =  1.00
     AMIN     =   0.01
     WC   =   100.;   INIMIX=   1;  MIXPRE=   1;  MAXMIX= -45

 Intra band minimization:
   WEIMIN = 0.0010     energy-eigenvalue tresh-hold
   EBREAK =  0.24E-06  absolut break condition
   DEPER  =   0.30     relativ break condition  

   TIME   =   0.40     timestep for ELM

  volume/ion in A,a.u.               =      12.45        84.00
  Fermi-wavevector in a.u.,A,eV,Ry     =   1.367164  2.583565 25.431145  1.869136
  Thomas-Fermi vector in A             =   2.493240
 
 Write flags
   LWAVE  =      F    write WAVECAR
   LCHARG =      T    write CHGCAR
   LVTOT  =      F    write LOCPOT, total local potential
   LVHAR  =      F    write LOCPOT, Hartree potential only
   LELF   =      F    write electronic localiz. function (ELF)
   LORBIT =      0    0 simple, 1 ext, 2 COOP (PROOUT)


 Dipole corrections
   LMONO  =      F    monopole corrections only (constant potential shift)
   LDIPOL =      F    correct potential (dipole corrections)
   IDIPOL =      0    1-x, 2-y, 3-z, 4-all directions 
   EPSILON=  1.0000000 bulk dielectric constant

 Exchange correlation treatment:
   GGA     =    --    GGA type
   LEXCH   =     8    internal setting for exchange type
   VOSKOWN=      0    Vosko Wilk Nusair interpolation
   LHFCALC =     F    Hartree Fock is set to
   LHFONE  =     F    Hartree Fock one center treatment
   AEXX    =    0.0000 exact exchange contribution

 Linear response parameters
   LEPSILON=     F    determine dielectric tensor
   LRPA    =     F    only Hartree local field effects (RPA)
   LNABLA  =     F    use nabla operator in PAW spheres
   LVEL    =     F    velocity operator in full k-point grid
   LINTERFAST=   F  fast interpolation
   KINTER  =     0    interpolate to denser k-point grid
   CSHIFT  =0.1000    complex shift for real part using Kramers Kronig
   OMEGAMAX=  -1.0    maximum frequency
   DEG_THRESHOLD= 0.2000000E-02 threshold for treating states as degnerate
   RTIME   =    0.100 relaxation time in fs

 Orbital magnetization related:
   ORBITALMAG=     F  switch on orbital magnetization
   LCHIMAG   =     F  perturbation theory with respect to B field
   DQ        =  0.001000  dq finite difference perturbation B field



--------------------------------------------------------------------------------------------------------


 quasi-Newton-method for relaxation of ions
 charge density and potential will be updated during run
 non-spin polarized calculation
 RMM-DIIS sequential band-by-band
 perform sub-space diagonalisation
    before iterative eigenvector-optimisation
 modified Broyden-mixing scheme, WC =      100.0
 initial mixing is a Kerker type mixing with AMIX =  0.4000 and BMIX =      1.0000
 Hartree-type preconditioning will be used
 using additional bands           17
 real space projection scheme for non local part
 use partial core corrections
 calculate Harris-corrections to forces 
   (improved forces if not selfconsistent)
 use gradient corrections 
 use of overlap-Matrix (Vanderbilt PP)
 Methfessel and Paxton  Order N= 1 SIGMA  =   0.20


--------------------------------------------------------------------------------------------------------


  energy-cutoff  :      400.00
  volume of cell :      298.75
      direct lattice vectors                 reciprocal lattice vectors
     5.735919000  0.000000000 -0.790267000     0.174339979  0.000000000  0.000000000
     0.000000000  4.785442000  0.000000000     0.000000000  0.208967113  0.000000000
     0.000000000  0.000000000 10.883966000     0.012658541  0.000000000  0.091878273

  length of vectors
     5.790102651  4.785442000 10.883966000     0.174339979  0.208967113  0.092746190


 
 k-points in units of 2pi/SCALE and weight: Automatic mesh                          
   0.00000000  0.00000000  0.00000000       0.125
   0.08716999  0.00000000  0.00000000       0.125
   0.00000000  0.10448356  0.00000000       0.125
   0.08716999  0.10448356  0.00000000       0.125
   0.00632927  0.00000000  0.04593914       0.125
   0.09349926  0.00000000  0.04593914       0.125
   0.00632927  0.10448356  0.04593914       0.125
   0.09349926  0.10448356  0.04593914       0.125
 
 k-points in reciprocal lattice and weights: Automatic mesh                          
   0.00000000  0.00000000  0.00000000       0.125
   0.50000000  0.00000000  0.00000000       0.125
   0.00000000  0.50000000  0.00000000       0.125
   0.50000000  0.50000000  0.00000000       0.125
  -0.00000000  0.00000000  0.50000000       0.125
   0.50000000  0.00000000  0.50000000       0.125
  -0.00000000  0.50000000  0.50000000       0.125
   0.50000000  0.50000000  0.50000000       0.125
 
 position of ions in fractional coordinates (direct lattice) 
   0.24699400  0.24850600  0.74541500
   0.24699400  0.75149400  0.24623300
   0.51485700  0.24497600  0.49256300
   0.51485700  0.75502400  0.99879200
   0.75373900  0.23127500  0.26486200
   0.75373900  0.76872500  0.76486200
   0.99045900  0.24137200  0.99652900
   0.99045900  0.75862800  0.49753900
   0.77857200  0.05847800  0.41725200
   0.78533300  0.94152200  0.91725200
   0.01370000  0.05755600  0.18278600
   0.01370000  0.94244400  0.68278600
   0.22224900  0.44944100  0.57827600
   0.22718800  0.55055900  0.07080400
   0.27923300  0.05174700  0.92203700
   0.27923300  0.94659800  0.42203700
   0.48187500  0.45353000  0.31584000
   0.48187500  0.54647000  0.81584000
   0.52253600  0.03560000  0.67416600
   0.52253600  0.97252300  0.17416600
   0.72235300  0.43845700  0.09109400
   0.72235300  0.55698000  0.59109400
   0.96880300  0.45650500  0.81960400
   0.97343300  0.54349500  0.31960400
 
 position of ions in cartesian coordinates  (Angst):
   1.41673758  1.18921105  7.91788031
   1.41673758  3.59623095  2.48480039
   2.95317805  1.17231844  4.95416445
   2.95317805  3.61312356 10.46394367
   4.32338585  1.10675310  2.28709394
   4.32338585  3.67868890  7.72907694
   5.68119260  1.15507171 10.06346069
   5.68119260  3.63037029  4.63247050
   4.46582593  0.27984308  3.92607682
   4.50460648  4.50559892  9.36271683
   0.07858209  0.27543090  1.97860995
   0.07858209  4.51001110  7.42059295
   1.27480226  2.15077384  6.11830027
   1.30313197  2.63466816  0.59108915
   1.60165787  0.24763227  9.81475073
   1.60165787  4.52988983  4.37276773
   2.76399597  2.17034151  3.05678191
   2.76399597  2.61510049  8.49876491
   2.99722417  0.17036174  6.92465687
   2.99722417  4.65395241  1.48267387
   4.14335830  2.09821054  0.42061226
   4.14335830  2.66539549  5.86259526
   5.55697553  2.18457820  8.15492903
   5.58353284  2.60086380  2.70928709
 


--------------------------------------------------------------------------------------------------------


 k-point  1 :   0.0000 0.0000 0.0000  plane waves:    5483
 k-point  2 :   0.5000 0.0000 0.0000  plane waves:    5426
 k-point  3 :   0.0000 0.5000 0.0000  plane waves:    5424
 k-point  4 :   0.5000 0.5000 0.0000  plane waves:    5432
 k-point  5 :  -0.0000 0.0000 0.5000  plane waves:    5422
 k-point  6 :   0.5000 0.0000 0.5000  plane waves:    5424
 k-point  7 :  -0.0000 0.5000 0.5000  plane waves:    5460
 k-point  8 :   0.5000 0.5000 0.5000  plane waves:    5428

 maximum and minimum number of plane-waves per node :      5483     5422

 maximum number of plane-waves:      5483
 maximum index in each direction: 
   IXMAX=    9   IYMAX=    7   IZMAX=   17
   IXMIN=   -9   IYMIN=   -8   IZMIN=  -18

 WARNING: aliasing errors must be expected set NGX to  38 to avoid them
 WARNING: aliasing errors must be expected set NGY to  32 to avoid them
 WARNING: aliasing errors must be expected set NGZ to  72 to avoid them
 aliasing errors are usually negligible using standard VASP settings
 and one can safely disregard these warnings

 serial   3D FFT for wavefunctions
 parallel 3D FFT for charge:
    minimum data exchange during FFTs selected (reduces bandwidth)


 total amount of memory used by VASP on root node   141667. kBytes
========================================================================

   base      :      30000. kBytes
   nonlr-proj:       4329. kBytes
   fftplans  :      10056. kBytes
   grid      :      20299. kBytes
   one-center:        373. kBytes
   wavefun   :      76610. kBytes
 
     INWAV:  cpu time    0.00: real time    0.00
 Broyden mixing: mesh for mixing (old mesh)
   NGX = 19   NGY = 15   NGZ = 35
  (NGX  = 56   NGY  = 48   NGZ  =108)
  gives a total of   9975 points

 initial charge density was supplied:
 charge density of overlapping atoms calculated
 number of electron     174.0000000 magnetization 
 keeping initial charge density in first step


--------------------------------------------------------------------------------------------------------


 Maximum index for non-local projection operator         1704
 Maximum index for augmentation-charges         4212 (set IRDMAX)


--------------------------------------------------------------------------------------------------------


 First call to EWALD:  gamma=   0.265
 Maximum number of real-space cells 3x 4x 2
 Maximum number of reciprocal cells 2x 2x 4

 FEWALD executed in parallel
    FEWALD:  cpu time    0.00: real time    0.00


----------------------------------------- Iteration    1(   1)  ---------------------------------------


    POTLOK:  cpu time    0.10: real time    0.20
    SETDIJ:  cpu time    0.03: real time    0.05
    EDDIAG:  cpu time    0.88: real time    1.77
  RMM-DIIS:  cpu time    2.05: real time    4.11
    ORTHCH:  cpu time    0.18: real time    0.31
       DOS:  cpu time    0.00: real time    0.01
    --------------------------------------------
      LOOP:  cpu time    3.25: real time    6.46

 eigenvalue-minimisations  :   832
 total energy-change (2. order) : 0.2128191E+04  (-0.6545655E+04)
 number of electron     174.0000000 magnetization 
 augmentation part      174.0000000 magnetization 

 Free energy of the ion-electron system (eV)
  ---------------------------------------------------
  alpha Z        PSCENC =       634.09262729
  Ewald energy   TEWEN  =    -10607.91764775
  -Hartree energ DENC   =     -4394.27931245
  -exchange      EXHF   =         0.00000000
  -V(xc)+E(xc)   XCENC  =       595.51344532
  PAW double counting   =     12680.77512887   -12817.41364524
  entropy T*S    EENTRO =        -0.03314004
  eigenvalues    EBANDS =      1186.17925934
  atomic energy  EATOM  =     14851.27451460
  ---------------------------------------------------
  free energy    TOTEN  =      2128.19122993 eV

  energy without entropy =     2128.22436997  energy(sigma->0) =     2128.20227661


--------------------------------------------------------------------------------------------------------




----------------------------------------- Iteration    1(   2)  ---------------------------------------


    EDDIAG:  cpu time    0.88: real time    1.76
  RMM-DIIS:  cpu time    1.94: real time    3.82
    ORTHCH:  cpu time    0.19: real time    0.38
       DOS:  cpu time    0.00: real time    0.00
    --------------------------------------------
      LOOP:  cpu time    3.02: real time    5.97

 eigenvalue-minimisations  :   832
 total energy-change (2. order) :-0.1464999E+04  (-0.1649753E+04)
 number of electron     174.0000000 magnetization 
 augmentation part      174.0000000 magnetization 

 Free energy of the ion-electron system (eV)
  ---------------------------------------------------
  alpha Z        PSCENC =       634.09262729
  Ewald energy   TEWEN  =    -10607.91764775
  -Hartree energ DENC   =     -4394.27931245
  -exchange      EXHF   =         0.00000000
  -V(xc)+E(xc)   XCENC  =       595.51344532
  PAW double counting   =     12680.77512887   -12817.41364524
  entropy T*S    EENTRO =        -0.01589872
  eigenvalues    EBANDS =      -278.83676401
  atomic energy  EATOM  =     14851.27451460
  ---------------------------------------------------
  free energy    TOTEN  =       663.19244790 eV

  energy without entropy =      663.20834662  energy(sigma->0) =      663.19774747


--------------------------------------------------------------------------------------------------------




----------------------------------------- Iteration    1(   3)  ---------------------------------------


    EDDIAG:  cpu time    0.88: real time    1.76
  RMM-DIIS:  cpu time    1.96: real time    3.92
    ORTHCH:  cpu time    0.19: real time    0.38
       DOS:  cpu time    0.00: real time    0.00
    --------------------------------------------
      LOOP:  cpu time    3.03: real time    6.06

 eigenvalue-minimisations  :   832
 total energy-change (2. order) :-0.4369894E+03  (-0.4340209E+03)
 number of electron     174.0000000 magnetization 
 augmentation part      174.0000000 magnetization 

 Free energy of the ion-electron system (eV)
  ---------------------------------------------------
  alpha Z        PSCENC =       634.09262729
  Ewald energy   TEWEN  =    -10607.91764775
  -Hartree energ DENC   =     -4394.27931245
  -exchange      EXHF   =         0.00000000
  -V(xc)+E(xc)   XCENC  =       595.51344532
  PAW double counting   =     12680.77512887   -12817.41364524
  entropy T*S    EENTRO =        -0.01976390
  eigenvalues    EBANDS =      -715.82231341
  atomic energy  EATOM  =     14851.27451460
  ---------------------------------------------------
  free energy    TOTEN  =       226.20303332 eV

  energy without entropy =      226.22279722  energy(sigma->0) =      226.20962129


--------------------------------------------------------------------------------------------------------




----------------------------------------- Iteration    1(   4)  ---------------------------------------


    EDDIAG:  cpu time    0.85: real time    1.24
  RMM-DIIS:  cpu time    1.91: real time    3.78
    ORTHCH:  cpu time    0.19: real time    0.38
       DOS:  cpu time    0.00: real time    0.00
    --------------------------------------------
      LOOP:  cpu time    2.95: real time    5.41

 eigenvalue-minimisations  :   832
 total energy-change (2. order) :-0.1839490E+03  (-0.1565605E+03)
 number of electron     174.0000000 magnetization 
 augmentation part      174.0000000 magnetization 

 Free energy of the ion-electron system (eV)
  ---------------------------------------------------
  alpha Z        PSCENC =       634.09262729
  Ewald energy   TEWEN  =    -10607.91764775
  -Hartree energ DENC   =     -4394.27931245
  -exchange      EXHF   =         0.00000000
  -V(xc)+E(xc)   XCENC  =       595.51344532
  PAW double counting   =     12680.77512887   -12817.41364524
  entropy T*S    EENTRO =        -0.00314247
  eigenvalues    EBANDS =      -899.78794319
  atomic energy  EATOM  =     14851.27451460
  ---------------------------------------------------
  free energy    TOTEN  =        42.25402497 eV

  energy without entropy =       42.25716744  energy(sigma->0) =       42.25507246


--------------------------------------------------------------------------------------------------------




----------------------------------------- Iteration    1(   5)  ---------------------------------------


    EDDIAG:  cpu time    0.86: real time    1.72
  RMM-DIIS:  cpu time    1.90: real time    3.81
    ORTHCH:  cpu time    0.18: real time    0.36
       DOS:  cpu time    0.00: real time    0.00
    --------------------------------------------
      LOOP:  cpu time    2.95: real time    5.90

 eigenvalue-minimisations  :   832
 total energy-change (2. order) :-0.1046342E+03  (-0.8198066E+02)
 number of electron     174.0000000 magnetization 
 augmentation part      174.0000000 magnetization 

 Free energy of the ion-electron system (eV)
  ---------------------------------------------------
  alpha Z        PSCENC =       634.09262729
  Ewald energy   TEWEN  =    -10607.91764775
  -Hartree energ DENC   =     -4394.27931245
  -exchange      EXHF   =         0.00000000
  -V(xc)+E(xc)   XCENC  =       595.51344532
  PAW double counting   =     12680.77512887   -12817.41364524
  entropy T*S    EENTRO =         0.02687702
  eigenvalues    EBANDS =     -1004.45212602
  atomic energy  EATOM  =     14851.27451460
  ---------------------------------------------------
  free energy    TOTEN  =       -62.38013837 eV

  energy without entropy =      -62.40701539  energy(sigma->0) =      -62.38909737


--------------------------------------------------------------------------------------------------------




----------------------------------------- Iteration    1(   6)  ---------------------------------------


    EDDIAG:  cpu time    0.86: real time    1.26
  RMM-DIIS:  cpu time    1.90: real time    3.75
    ORTHCH:  cpu time    0.18: real time    0.36
       DOS:  cpu time    0.00: real time    0.00
    --------------------------------------------
      LOOP:  cpu time    2.95: real time    5.37

 eigenvalue-minimisations  :   832
 total energy-change (2. order) :-0.4788913E+02  (-0.3620044E+02)
 number of electron     174.0000000 magnetization 
 augmentation part      174.0000000 magnetization 

 Free energy of the ion-electron system (eV)
  ---------------------------------------------------
  alpha Z        PSCENC =       634.09262729
  Ewald energy   TEWEN  =    -10607.91764775
  -Hartree energ DENC   =     -4394.27931245
  -exchange      EXHF   =         0.00000000
  -V(xc)+E(xc)   XCENC  =       595.51344532
  PAW double counting   =     12680.77512887   -12817.41364524
  entropy T*S    EENTRO =         0.05209466
  eigenvalues    EBANDS =     -1052.36647502
  atomic energy  EATOM  =     14851.27451460
  ---------------------------------------------------
  free energy    TOTEN  =      -110.26926973 eV

  energy without entropy =     -110.32136439  energy(sigma->0) =     -110.28663461


--------------------------------------------------------------------------------------------------------




----------------------------------------- Iteration    1(   7)  ---------------------------------------


    EDDIAG:  cpu time    0.86: real time    1.72
  RMM-DIIS:  cpu time    1.81: real time    3.63
    ORTHCH:  cpu time    0.18: real time    0.37
       DOS:  cpu time    0.00: real time    0.00
    --------------------------------------------
      LOOP:  cpu time    2.86: real time    5.73

 eigenvalue-minimisations  :   832
 total energy-change (2. order) :-0.2478889E+02  (-0.1990838E+02)
 number of electron     174.0000000 magnetization 
 augmentation part      174.0000000 magnetization 

 Free energy of the ion-electron system (eV)
  ---------------------------------------------------
  alpha Z        PSCENC =       634.09262729
  Ewald energy   TEWEN  =    -10607.91764775
  -Hartree energ DENC   =     -4394.27931245
  -exchange      EXHF   =         0.00000000
  -V(xc)+E(xc)   XCENC  =       595.51344532
  PAW double counting   =     12680.77512887   -12817.41364524
  entropy T*S    EENTRO =         0.11659242
  eigenvalues    EBANDS =     -1077.21986726
  atomic energy  EATOM  =     14851.27451460
  ---------------------------------------------------
  free energy    TOTEN  =      -135.05816421 eV

  energy without entropy =     -135.17475663  energy(sigma->0) =     -135.09702835


--------------------------------------------------------------------------------------------------------




----------------------------------------- Iteration    1(   8)  ---------------------------------------


    EDDIAG:  cpu time    0.85: real time    1.71
  RMM-DIIS:  cpu time    1.77: real time    3.54
    ORTHCH:  cpu time    0.17: real time    0.34
       DOS:  cpu time    0.00: real time    0.01
    --------------------------------------------
      LOOP:  cpu time    2.80: real time    5.61

 eigenvalue-minimisations  :   832
 total energy-change (2. order) :-0.9943302E+01  (-0.8077701E+01)
 number of electron     174.0000000 magnetization 
 augmentation part      174.0000000 magnetization 

 Free energy of the ion-electron system (eV)
  ---------------------------------------------------
  alpha Z        PSCENC =       634.09262729
  Ewald energy   TEWEN  =    -10607.91764775
  -Hartree energ DENC   =     -4394.27931245
  -exchange      EXHF   =         0.00000000
  -V(xc)+E(xc)   XCENC  =       595.51344532
  PAW double counting   =     12680.77512887   -12817.41364524
  entropy T*S    EENTRO =         0.14405637
  eigenvalues    EBANDS =     -1087.19063351
  atomic energy  EATOM  =     14851.27451460
  ---------------------------------------------------
  free energy    TOTEN  =      -145.00146651 eV

  energy without entropy =     -145.14552288  energy(sigma->0) =     -145.04948530


--------------------------------------------------------------------------------------------------------




----------------------------------------- Iteration    1(   9)  ---------------------------------------


    EDDIAG:  cpu time    0.85: real time    1.69
  RMM-DIIS:  cpu time    5.05: real time   10.11
    ORTHCH:  cpu time    0.17: real time    0.34
       DOS:  cpu time    0.00: real time    0.00
    --------------------------------------------
      LOOP:  cpu time    6.08: real time   12.15

 eigenvalue-minimisations  :  2653
 total energy-change (2. order) :-0.9923223E+01  (-0.9105820E+01)
 number of electron     174.0000000 magnetization 
 augmentation part      174.0000000 magnetization 

 Free energy of the ion-electron system (eV)
  ---------------------------------------------------
  alpha Z        PSCENC =       634.09262729
  Ewald energy   TEWEN  =    -10607.91764775
  -Hartree energ DENC   =     -4394.27931245
  -exchange      EXHF   =         0.00000000
  -V(xc)+E(xc)   XCENC  =       595.51344532
  PAW double counting   =     12680.77512887   -12817.41364524
  entropy T*S    EENTRO =         0.17087168
  eigenvalues    EBANDS =     -1097.14067225
  atomic energy  EATOM  =     14851.27451460
  ---------------------------------------------------
  free energy    TOTEN  =      -154.92468993 eV

  energy without entropy =     -155.09556162  energy(sigma->0) =     -154.98164716


--------------------------------------------------------------------------------------------------------




----------------------------------------- Iteration    1(  10)  ---------------------------------------


    EDDIAG:  cpu time    0.84: real time    1.69
  RMM-DIIS:  cpu time    5.14: real time    8.87
    ORTHCH:  cpu time    0.18: real time    0.36
       DOS:  cpu time    0.00: real time    0.00
    --------------------------------------------
      LOOP:  cpu time    6.16: real time   10.92

 eigenvalue-minimisations  :  2646
 total energy-change (2. order) :-0.2069518E+00  (-0.4347749E+00)
 number of electron     174.0000000 magnetization 
 augmentation part      174.0000000 magnetization 

 Free energy of the ion-electron system (eV)
  ---------------------------------------------------
  alpha Z        PSCENC =       634.09262729
  Ewald energy   TEWEN  =    -10607.91764775
  -Hartree energ DENC   =     -4394.27931245
  -exchange      EXHF   =         0.00000000
  -V(xc)+E(xc)   XCENC  =       595.51344532
  PAW double counting   =     12680.77512887   -12817.41364524
  entropy T*S    EENTRO =         0.15949677
  eigenvalues    EBANDS =     -1097.33624918
  atomic energy  EATOM  =     14851.27451460
  ---------------------------------------------------
  free energy    TOTEN  =      -155.13164177 eV

  energy without entropy =     -155.29113855  energy(sigma->0) =     -155.18480736


--------------------------------------------------------------------------------------------------------




----------------------------------------- Iteration    1(  11)  ---------------------------------------


    EDDIAG:  cpu time    0.86: real time    1.71
  RMM-DIIS:  cpu time    4.94: real time    8.81
    ORTHCH:  cpu time    0.19: real time    0.19
       DOS:  cpu time    0.00: real time    0.00
    --------------------------------------------
      LOOP:  cpu time    5.99: real time   10.71

 eigenvalue-minimisations  :  2418
 total energy-change (2. order) :-0.1943436E+00  (-0.1709697E+00)
 number of electron     174.0000000 magnetization 
 augmentation part      174.0000000 magnetization 

 Free energy of the ion-electron system (eV)
  ---------------------------------------------------
  alpha Z        PSCENC =       634.09262729
  Ewald energy   TEWEN  =    -10607.91764775
  -Hartree energ DENC   =     -4394.27931245
  -exchange      EXHF   =         0.00000000
  -V(xc)+E(xc)   XCENC  =       595.51344532
  PAW double counting   =     12680.77512887   -12817.41364524
  entropy T*S    EENTRO =         0.15750901
  eigenvalues    EBANDS =     -1097.52860501
  atomic energy  EATOM  =     14851.27451460
  ---------------------------------------------------
  free energy    TOTEN  =      -155.32598537 eV

  energy without entropy =     -155.48349438  energy(sigma->0) =     -155.37848838


--------------------------------------------------------------------------------------------------------




----------------------------------------- Iteration    1(  12)  ---------------------------------------


    EDDIAG:  cpu time    0.85: real time    0.85
  RMM-DIIS:  cpu time    4.04: real time    4.04
    ORTHCH:  cpu time    0.18: real time    0.18
       DOS:  cpu time    0.00: real time    0.00
    CHARGE:  cpu time    0.35: real time    0.35
    MIXING:  cpu time    0.00: real time    0.00
    --------------------------------------------
      LOOP:  cpu time    5.43: real time    5.43

 eigenvalue-minimisations  :  1980
 total energy-change (2. order) :-0.8953515E-01  (-0.8142906E-01)
 number of electron     174.0000005 magnetization 
 augmentation part       51.0017284 magnetization 

 Broyden mixing:
  rms(total) = 0.38448E+01    rms(broyden)= 0.38304E+01
  rms(prec ) = 0.46406E+01
  weight for this iteration     100.00

 Free energy of the ion-electron system (eV)
  ---------------------------------------------------
  alpha Z        PSCENC =       634.09262729
  Ewald energy   TEWEN  =    -10607.91764775
  -Hartree energ DENC   =     -4394.27931245
  -exchange      EXHF   =         0.00000000
  -V(xc)+E(xc)   XCENC  =       595.51344532
  PAW double counting   =     12680.77512887   -12817.41364524
  entropy T*S    EENTRO =         0.15824398
  eigenvalues    EBANDS =     -1097.61887514
  atomic energy  EATOM  =     14851.27451460
  ---------------------------------------------------
  free energy    TOTEN  =      -155.41552052 eV

  energy without entropy =     -155.57376451  energy(sigma->0) =     -155.46826852


--------------------------------------------------------------------------------------------------------




----------------------------------------- Iteration    1(  13)  ---------------------------------------


    POTLOK:  cpu time    0.10: real time    0.10
    SETDIJ:  cpu time    0.03: real time    0.03
    EDDIAG:  cpu time    0.85: real time    0.85
  RMM-DIIS:  cpu time    4.10: real time    7.77
    ORTHCH:  cpu time    0.18: real time    0.36
       DOS:  cpu time    0.00: real time    0.00
    CHARGE:  cpu time    0.35: real time    0.70
    MIXING:  cpu time    0.00: real time    0.00
    --------------------------------------------
      LOOP:  cpu time    5.61: real time    9.82

 eigenvalue-minimisations  :  2037
 total energy-change (2. order) : 0.8734213E+01  (-0.1907414E+02)
 number of electron     173.9999934 magnetization 
 augmentation part       56.3267867 magnetization 

 Broyden mixing:
  rms(total) = 0.62021E+01    rms(broyden)= 0.61986E+01
  rms(prec ) = 0.78210E+01
  weight for this iteration     100.00

 eigenvalues of (default mixing * dielectric matrix)
  average eigenvalue GAMMA=   0.2964
  0.2964

 Free energy of the ion-electron system (eV)
  ---------------------------------------------------
  alpha Z        PSCENC =       634.09262729
  Ewald energy   TEWEN  =    -10607.91764775
  -Hartree energ DENC   =     -4478.22486845
  -exchange      EXHF   =         0.00000000
  -V(xc)+E(xc)   XCENC  =       604.72856069
  PAW double counting   =     13505.65142394   -13627.61656546
  entropy T*S    EENTRO =         0.03298474
  eigenvalues    EBANDS =     -1028.70233693
  atomic energy  EATOM  =     14851.27451460
  ---------------------------------------------------
  free energy    TOTEN  =      -146.68130732 eV

  energy without entropy =     -146.71429206  energy(sigma->0) =     -146.69230224


--------------------------------------------------------------------------------------------------------




----------------------------------------- Iteration    1(  14)  ---------------------------------------


    POTLOK:  cpu time    0.09: real time    0.18
    SETDIJ:  cpu time    0.03: real time    0.06
    EDDIAG:  cpu time    0.86: real time    1.73
  RMM-DIIS:  cpu time    3.57: real time    7.00
    ORTHCH:  cpu time    0.19: real time    0.37
       DOS:  cpu time    0.00: real time    0.01
    CHARGE:  cpu time    0.36: real time    0.70
    MIXING:  cpu time    0.00: real time    0.01
    --------------------------------------------
      LOOP:  cpu time    5.10: real time   10.05

 eigenvalue-minimisations  :  1786
 total energy-change (2. order) :-0.3691736E+02  (-0.4341256E+01)
 number of electron     173.9999922 magnetization 
 augmentation part       53.3067616 magnetization 

 Broyden mixing:
  rms(total) = 0.94117E+01    rms(broyden)= 0.94102E+01
  rms(prec ) = 0.12306E+02
  weight for this iteration     100.00

 eigenvalues of (default mixing * dielectric matrix)
  average eigenvalue GAMMA=   0.2316
  0.3710  0.0921

 Free energy of the ion-electron system (eV)
  ---------------------------------------------------
  alpha Z        PSCENC =       634.09262729
  Ewald energy   TEWEN  =    -10607.91764775
  -Hartree energ DENC   =     -4478.57432269
  -exchange      EXHF   =         0.00000000
  -V(xc)+E(xc)   XCENC  =       603.95321152
  PAW double counting   =     13721.61207069   -13850.59953050
  entropy T*S    EENTRO =         0.01648849
  eigenvalues    EBANDS =     -1057.45608270
  atomic energy  EATOM  =     14851.27451460
  ---------------------------------------------------
  free energy    TOTEN  =      -183.59867106 eV

  energy without entropy =     -183.61515955  energy(sigma->0) =     -183.60416722


--------------------------------------------------------------------------------------------------------




----------------------------------------- Iteration    1(  15)  ---------------------------------------


    POTLOK:  cpu time    0.10: real time    0.19
    SETDIJ:  cpu time    0.03: real time    0.06
    EDDIAG:  cpu time    0.87: real time    1.74
  RMM-DIIS:  cpu time    4.09: real time    8.20
    ORTHCH:  cpu time    0.18: real time    0.37
       DOS:  cpu time    0.00: real time    0.00
    CHARGE:  cpu time    0.35: real time    0.71
    MIXING:  cpu time    0.00: real time    0.00
    --------------------------------------------
      LOOP:  cpu time    5.63: real time   11.27

 eigenvalue-minimisations  :  1898
 total energy-change (2. order) : 0.2213152E+02  (-0.1705473E+01)
 number of electron     173.9999947 magnetization 
 augmentation part       52.9236587 magnetization 

 Broyden mixing:
  rms(total) = 0.86618E+01    rms(broyden)= 0.86605E+01
  rms(prec ) = 0.11902E+02
  weight for this iteration     100.00

 eigenvalues of (default mixing * dielectric matrix)
  average eigenvalue GAMMA=   0.1801
  0.3687  0.0859  0.0859

 Free energy of the ion-electron system (eV)
  ---------------------------------------------------
  alpha Z        PSCENC =       634.09262729
  Ewald energy   TEWEN  =    -10607.91764775
  -Hartree energ DENC   =     -4482.06063259
  -exchange      EXHF   =         0.00000000
  -V(xc)+E(xc)   XCENC  =       603.89788088
  PAW double counting   =     13882.15363916   -14015.89006518
  entropy T*S    EENTRO =        -0.20518245
  eigenvalues    EBANDS =     -1026.81228574
  atomic energy  EATOM  =     14851.27451460
  ---------------------------------------------------
  free energy    TOTEN  =      -161.46715178 eV

  energy without entropy =     -161.26196933  energy(sigma->0) =     -161.39875763


--------------------------------------------------------------------------------------------------------




----------------------------------------- Iteration    1(  16)  ---------------------------------------


    POTLOK:  cpu time    0.10: real time    0.20
    SETDIJ:  cpu time    0.03: real time    0.05
    EDDIAG:  cpu time    0.86: real time    1.60
  RMM-DIIS:  cpu time    4.10: real time    8.20
    ORTHCH:  cpu time    0.19: real time    0.39
       DOS:  cpu time    0.00: real time    0.00
    CHARGE:  cpu time    0.35: real time    0.68
    MIXING:  cpu time    0.00: real time    0.00
    --------------------------------------------
      LOOP:  cpu time    5.64: real time   11.14

 eigenvalue-minimisations  :  1859
 total energy-change (2. order) : 0.1916716E+02  (-0.5905151E+00)
 number of electron     173.9999955 magnetization 
 augmentation part       52.7660461 magnetization 

 Broyden mixing:
  rms(total) = 0.48654E+01    rms(broyden)= 0.48613E+01
  rms(prec ) = 0.67619E+01
  weight for this iteration     100.00

 eigenvalues of (default mixing * dielectric matrix)
  average eigenvalue GAMMA=   0.2147
  0.3123  0.3123  0.1846  0.0497

 Free energy of the ion-electron system (eV)
  ---------------------------------------------------
  alpha Z        PSCENC =       634.09262729
  Ewald energy   TEWEN  =    -10607.91764775
  -Hartree energ DENC   =     -4481.11581249
  -exchange      EXHF   =         0.00000000
  -V(xc)+E(xc)   XCENC  =       603.93695749
  PAW double counting   =     13933.29559031   -14066.66484568
  entropy T*S    EENTRO =        -0.07913946
  eigenvalues    EBANDS =     -1009.12223481
  atomic energy  EATOM  =     14851.27451460
  ---------------------------------------------------
  free energy    TOTEN  =      -142.29999051 eV

  energy without entropy =     -142.22085105  energy(sigma->0) =     -142.27361069


--------------------------------------------------------------------------------------------------------




----------------------------------------- Iteration    1(  17)  ---------------------------------------


    POTLOK:  cpu time    0.09: real time    0.09
    SETDIJ:  cpu time    0.03: real time    0.04
    EDDIAG:  cpu time    0.88: real time    1.76
  RMM-DIIS:  cpu time    3.98: real time    7.96
    ORTHCH:  cpu time    0.19: real time    0.38
       DOS:  cpu time    0.00: real time    0.00
    CHARGE:  cpu time    0.35: real time    0.71
    MIXING:  cpu time    0.00: real time    0.00
    --------------------------------------------
      LOOP:  cpu time    5.53: real time   10.95

 eigenvalue-minimisations  :  1829
 total energy-change (2. order) :-0.5577703E+01  (-0.8706397E+00)
 number of electron     173.9999975 magnetization 
 augmentation part       52.8643360 magnetization 

 Broyden mixing:
  rms(total) = 0.65848E+01    rms(broyden)= 0.65825E+01
  rms(prec ) = 0.92567E+01
  weight for this iteration     100.00

 eigenvalues of (default mixing * dielectric matrix)
  average eigenvalue GAMMA=   0.2959
  0.6089  0.6089  0.1434  0.0654  0.0529

 Free energy of the ion-electron system (eV)
  ---------------------------------------------------
  alpha Z        PSCENC =       634.09262729
  Ewald energy   TEWEN  =    -10607.91764775
  -Hartree energ DENC   =     -4479.09805461
  -exchange      EXHF   =         0.00000000
  -V(xc)+E(xc)   XCENC  =       603.85177484
  PAW double counting   =     14010.75904050   -14146.87475997
  entropy T*S    EENTRO =        -0.05256991
  eigenvalues    EBANDS =     -1013.91261894
  atomic energy  EATOM  =     14851.27451460
  ---------------------------------------------------
  free energy    TOTEN  =      -147.87769396 eV

  energy without entropy =     -147.82512404  energy(sigma->0) =     -147.86017065


--------------------------------------------------------------------------------------------------------




----------------------------------------- Iteration    1(  18)  ---------------------------------------


    POTLOK:  cpu time    0.09: real time    0.19
    SETDIJ:  cpu time    0.03: real time    0.05
    EDDIAG:  cpu time    0.84: real time    1.56
  RMM-DIIS:  cpu time    3.96: real time    7.92
    ORTHCH:  cpu time    0.18: real time    0.38
       DOS:  cpu time    0.00: real time    0.00
    CHARGE:  cpu time    0.34: real time    0.68
    MIXING:  cpu time    0.01: real time    0.02
    --------------------------------------------
      LOOP:  cpu time    5.46: real time   10.80

 eigenvalue-minimisations  :  1875
 total energy-change (2. order) :-0.2479867E+02  (-0.1257116E+01)
 number of electron     173.9999965 magnetization 
 augmentation part       53.1415184 magnetization 

 Broyden mixing:
  rms(total) = 0.85577E+01    rms(broyden)= 0.85565E+01
  rms(prec ) = 0.12339E+02
  weight for this iteration     100.00

 eigenvalues of (default mixing * dielectric matrix)
  average eigenvalue GAMMA=   0.3755
  1.4185  0.5135  0.1001  0.1001  0.0705  0.0500

 Free energy of the ion-electron system (eV)
  ---------------------------------------------------
  alpha Z        PSCENC =       634.09262729
  Ewald energy   TEWEN  =    -10607.91764775
  -Hartree energ DENC   =     -4477.81459289
  -exchange      EXHF   =         0.00000000
  -V(xc)+E(xc)   XCENC  =       603.87077428
  PAW double counting   =     14167.01822371   -14303.21560692
  entropy T*S    EENTRO =        -0.00462056
  eigenvalues    EBANDS =     -1039.98004031
  atomic energy  EATOM  =     14851.27451460
  ---------------------------------------------------
  free energy    TOTEN  =      -172.67636854 eV

  energy without entropy =     -172.67174799  energy(sigma->0) =     -172.67482836


--------------------------------------------------------------------------------------------------------




----------------------------------------- Iteration    1(  19)  ---------------------------------------


    POTLOK:  cpu time    0.10: real time    0.20
    SETDIJ:  cpu time    0.03: real time    0.05
    EDDIAG:  cpu time    0.87: real time    1.74
  RMM-DIIS:  cpu time    4.22: real time    8.45
    ORTHCH:  cpu time    0.19: real time    0.37
       DOS:  cpu time    0.00: real time    0.00
    CHARGE:  cpu time    0.34: real time    0.69
    MIXING:  cpu time    0.01: real time    0.02
    --------------------------------------------
      LOOP:  cpu time    5.76: real time   11.51

 eigenvalue-minimisations  :  1935
 total energy-change (2. order) : 0.2886458E+02  (-0.9277178E+00)
 number of electron     173.9999939 magnetization 
 augmentation part       53.5014665 magnetization 

 Broyden mixing:
  rms(total) = 0.66726E+01    rms(broyden)= 0.66704E+01
  rms(prec ) = 0.95604E+01
  weight for this iteration     100.00

 eigenvalues of (default mixing * dielectric matrix)
  average eigenvalue GAMMA=   0.3488
  1.4761  0.5233  0.1270  0.1015  0.1015  0.0618  0.0506

 Free energy of the ion-electron system (eV)
  ---------------------------------------------------
  alpha Z        PSCENC =       634.09262729
  Ewald energy   TEWEN  =    -10607.91764775
  -Hartree energ DENC   =     -4475.53195373
  -exchange      EXHF   =         0.00000000
  -V(xc)+E(xc)   XCENC  =       604.37116685
  PAW double counting   =     14580.52975961   -14719.30015867
  entropy T*S    EENTRO =        -0.08066979
  eigenvalues    EBANDS =     -1011.24942714
  atomic energy  EATOM  =     14851.27451460
  ---------------------------------------------------
  free energy    TOTEN  =      -143.81178873 eV

  energy without entropy =     -143.73111894  energy(sigma->0) =     -143.78489880


--------------------------------------------------------------------------------------------------------




----------------------------------------- Iteration    1(  20)  ---------------------------------------


    POTLOK:  cpu time    0.10: real time    0.20
    SETDIJ:  cpu time    0.03: real time    0.05
    EDDIAG:  cpu time    0.86: real time    1.73
  RMM-DIIS:  cpu time    3.87: real time    7.74
    ORTHCH:  cpu time    0.18: real time    0.37
       DOS:  cpu time    0.00: real time    0.00
    CHARGE:  cpu time    0.34: real time    0.69
    MIXING:  cpu time    0.01: real time    0.01
    --------------------------------------------
      LOOP:  cpu time    5.39: real time   10.79

 eigenvalue-minimisations  :  1836
 total energy-change (2. order) : 0.4107451E+01  (-0.3247959E+00)
 number of electron     173.9999955 magnetization 
 augmentation part       53.5672696 magnetization 

 Broyden mixing:
  rms(total) = 0.55332E+01    rms(broyden)= 0.55315E+01
  rms(prec ) = 0.85629E+01
  weight for this iteration     100.00

 eigenvalues of (default mixing * dielectric matrix)
  average eigenvalue GAMMA=   0.3578
  1.5967  0.5875  0.2466  0.1338  0.1338  0.0583  0.0583  0.0472

 Free energy of the ion-electron system (eV)
  ---------------------------------------------------
  alpha Z        PSCENC =       634.09262729
  Ewald energy   TEWEN  =    -10607.91764775
  -Hartree energ DENC   =     -4475.19531934
  -exchange      EXHF   =         0.00000000
  -V(xc)+E(xc)   XCENC  =       604.38124838
  PAW double counting   =     14618.41154353   -14757.11997119
  entropy T*S    EENTRO =         0.00253534
  eigenvalues    EBANDS =     -1007.63386820
  atomic energy  EATOM  =     14851.27451460
  ---------------------------------------------------
  free energy    TOTEN  =      -139.70433735 eV

  energy without entropy =     -139.70687269  energy(sigma->0) =     -139.70518246


--------------------------------------------------------------------------------------------------------




----------------------------------------- Iteration    1(  21)  ---------------------------------------


    POTLOK:  cpu time    0.10: real time    0.19
    SETDIJ:  cpu time    0.03: real time    0.05
    EDDIAG:  cpu time    0.86: real time    1.73
  RMM-DIIS:  cpu time    4.00: real time    7.80
    ORTHCH:  cpu time    0.19: real time    0.38
       DOS:  cpu time    0.00: real time    0.00
    CHARGE:  cpu time    0.34: real time    0.68
    MIXING:  cpu time    0.01: real time    0.02
    --------------------------------------------
      LOOP:  cpu time    5.51: real time   10.84

 eigenvalue-minimisations  :  2007
 total energy-change (2. order) : 0.4377485E+01  (-0.2738167E+00)
 number of electron     173.9999971 magnetization 
 augmentation part       53.2327015 magnetization 

 Broyden mixing:
  rms(total) = 0.35802E+01    rms(broyden)= 0.35764E+01
  rms(prec ) = 0.49460E+01
  weight for this iteration     100.00

 eigenvalues of (default mixing * dielectric matrix)
  average eigenvalue GAMMA=   0.3356
  1.6455  0.5951  0.2499  0.1336  0.1336  0.0970  0.0657  0.0519  0.0481

 Free energy of the ion-electron system (eV)
  ---------------------------------------------------
  alpha Z        PSCENC =       634.09262729
  Ewald energy   TEWEN  =    -10607.91764775
  -Hartree energ DENC   =     -4471.89151638
  -exchange      EXHF   =         0.00000000
  -V(xc)+E(xc)   XCENC  =       604.23717233
  PAW double counting   =     14718.38012764   -14858.43340617
  entropy T*S    EENTRO =        -0.02306476
  eigenvalues    EBANDS =     -1005.04565886
  atomic energy  EATOM  =     14851.27451460
  ---------------------------------------------------
  free energy    TOTEN  =      -135.32685206 eV

  energy without entropy =     -135.30378730  energy(sigma->0) =     -135.31916380


--------------------------------------------------------------------------------------------------------




----------------------------------------- Iteration    1(  22)  ---------------------------------------


    POTLOK:  cpu time    0.10: real time    0.19
    SETDIJ:  cpu time    0.03: real time    0.06
    EDDIAG:  cpu time    0.85: real time    1.59
  RMM-DIIS:  cpu time    3.70: real time    7.07
    ORTHCH:  cpu time    0.19: real time    0.38
       DOS:  cpu time    0.00: real time    0.00
    CHARGE:  cpu time    0.34: real time    0.68
    MIXING:  cpu time    0.01: real time    0.02
    --------------------------------------------
      LOOP:  cpu time    5.22: real time    9.98

 eigenvalue-minimisations  :  1797
 total energy-change (2. order) : 0.1171232E+01  (-0.1313699E+00)
 number of electron     173.9999975 magnetization 
 augmentation part       53.2864594 magnetization 

 Broyden mixing:
  rms(total) = 0.36659E+01    rms(broyden)= 0.36644E+01
  rms(prec ) = 0.54693E+01
  weight for this iteration     100.00

 eigenvalues of (default mixing * dielectric matrix)
  average eigenvalue GAMMA=   0.3720
  1.8909  0.6763  0.3374  0.3374  0.1318  0.1318  0.0639  0.0526  0.0526  0.0447

 Free energy of the ion-electron system (eV)
  ---------------------------------------------------
  alpha Z        PSCENC =       634.09262729
  Ewald energy   TEWEN  =    -10607.91764775
  -Hartree energ DENC   =     -4472.39029720
  -exchange      EXHF   =         0.00000000
  -V(xc)+E(xc)   XCENC  =       604.21974258
  PAW double counting   =     14746.49719020   -14887.49509752
  entropy T*S    EENTRO =        -0.09158515
  eigenvalues    EBANDS =     -1002.34506716
  atomic energy  EATOM  =     14851.27451460
  ---------------------------------------------------
  free energy    TOTEN  =      -134.15562010 eV

  energy without entropy =     -134.06403496  energy(sigma->0) =     -134.12509172


--------------------------------------------------------------------------------------------------------




----------------------------------------- Iteration    1(  23)  ---------------------------------------


    POTLOK:  cpu time    0.09: real time    0.18
    SETDIJ:  cpu time    0.03: real time    0.06
    EDDIAG:  cpu time    0.86: real time    1.60
  RMM-DIIS:  cpu time    4.33: real time    8.67
    ORTHCH:  cpu time    0.19: real time    0.39
       DOS:  cpu time    0.00: real time    0.00
    CHARGE:  cpu time    0.36: real time    0.71
    MIXING:  cpu time    0.01: real time    0.02
    --------------------------------------------
      LOOP:  cpu time    5.88: real time   11.63

 eigenvalue-minimisations  :  1930
 total energy-change (2. order) :-0.9444556E+00  (-0.9211082E-01)
 number of electron     173.9999971 magnetization 
 augmentation part       53.1386317 magnetization 

 Broyden mixing:
  rms(total) = 0.42385E+01    rms(broyden)= 0.42366E+01
  rms(prec ) = 0.65176E+01
  weight for this iteration     100.00

 eigenvalues of (default mixing * dielectric matrix)
  average eigenvalue GAMMA=   0.3535
  1.9640  0.6852  0.3534  0.3534  0.1312  0.1312  0.0692  0.0589  0.0532  0.0455
  0.0429

 Free energy of the ion-electron system (eV)
  ---------------------------------------------------
  alpha Z        PSCENC =       634.09262729
  Ewald energy   TEWEN  =    -10607.91764775
  -Hartree energ DENC   =     -4474.54627414
  -exchange      EXHF   =         0.00000000
  -V(xc)+E(xc)   XCENC  =       604.41489882
  PAW double counting   =     14871.09910055   -15013.00912256
  entropy T*S    EENTRO =         0.00323520
  eigenvalues    EBANDS =     -1000.51140767
  atomic energy  EATOM  =     14851.27451460
  ---------------------------------------------------
  free energy    TOTEN  =      -135.10007566 eV

  energy without entropy =     -135.10331086  energy(sigma->0) =     -135.10115406


--------------------------------------------------------------------------------------------------------




----------------------------------------- Iteration    1(  24)  ---------------------------------------


    POTLOK:  cpu time    0.10: real time    0.19
    SETDIJ:  cpu time    0.03: real time    0.06
    EDDIAG:  cpu time    0.90: real time    1.79
  RMM-DIIS:  cpu time    4.02: real time    7.21
    ORTHCH:  cpu time    0.19: real time    0.40
       DOS:  cpu time    0.00: real time    0.00
    CHARGE:  cpu time    0.36: real time    0.72
    MIXING:  cpu time    0.01: real time    0.01
    --------------------------------------------
      LOOP:  cpu time    5.61: real time   10.37

 eigenvalue-minimisations  :  1720
 total energy-change (2. order) : 0.2450953E+01  (-0.6899470E-01)
 number of electron     173.9999971 magnetization 
 augmentation part       53.1924055 magnetization 

 Broyden mixing:
  rms(total) = 0.15203E+01    rms(broyden)= 0.15153E+01
  rms(prec ) = 0.22466E+01
  weight for this iteration     100.00

 eigenvalues of (default mixing * dielectric matrix)
  average eigenvalue GAMMA=   0.3654
  1.8839  0.6528  0.6528  0.4413  0.2293  0.1335  0.1335  0.0620  0.0575  0.0519
  0.0457  0.0399

 Free energy of the ion-electron system (eV)
  ---------------------------------------------------
  alpha Z        PSCENC =       634.09262729
  Ewald energy   TEWEN  =    -10607.91764775
  -Hartree energ DENC   =     -4475.32996696
  -exchange      EXHF   =         0.00000000
  -V(xc)+E(xc)   XCENC  =       604.49671976
  PAW double counting   =     14912.71901488   -15055.39425803
  entropy T*S    EENTRO =         0.07082991
  eigenvalues    EBANDS =      -996.66095623
  atomic energy  EATOM  =     14851.27451460
  ---------------------------------------------------
  free energy    TOTEN  =      -132.64912252 eV

  energy without entropy =     -132.71995243  energy(sigma->0) =     -132.67273249


--------------------------------------------------------------------------------------------------------




----------------------------------------- Iteration    1(  25)  ---------------------------------------


    POTLOK:  cpu time    0.10: real time    0.21
    SETDIJ:  cpu time    0.03: real time    0.05
    EDDIAG:  cpu time    0.88: real time    1.76
  RMM-DIIS:  cpu time    4.33: real time    8.29
    ORTHCH:  cpu time    0.19: real time    0.38
       DOS:  cpu time    0.00: real time    0.01
    CHARGE:  cpu time    0.36: real time    0.71
    MIXING:  cpu time    0.01: real time    0.02
    --------------------------------------------
      LOOP:  cpu time    5.89: real time   11.42

 eigenvalue-minimisations  :  2022
 total energy-change (2. order) : 0.4542037E+00  (-0.3593253E-01)
 number of electron     173.9999973 magnetization 
 augmentation part       53.0264308 magnetization 

 Broyden mixing:
  rms(total) = 0.17231E+01    rms(broyden)= 0.17222E+01
  rms(prec ) = 0.24324E+01
  weight for this iteration     100.00

 eigenvalues of (default mixing * dielectric matrix)
  average eigenvalue GAMMA=   0.3799
  2.0614  0.6920  0.6920  0.4392  0.2665  0.2665  0.1321  0.1321  0.0619  0.0575
  0.0524  0.0459  0.0396

 Free energy of the ion-electron system (eV)
  ---------------------------------------------------
  alpha Z        PSCENC =       634.09262729
  Ewald energy   TEWEN  =    -10607.91764775
  -Hartree energ DENC   =     -4471.99333173
  -exchange      EXHF   =         0.00000000
  -V(xc)+E(xc)   XCENC  =       604.22818626
  PAW double counting   =     14889.28170743   -15032.45475247
  entropy T*S    EENTRO =        -0.08858050
  eigenvalues    EBANDS =      -998.61764199
  atomic energy  EATOM  =     14851.27451460
  ---------------------------------------------------
  free energy    TOTEN  =      -132.19491886 eV

  energy without entropy =     -132.10633836  energy(sigma->0) =     -132.16539203


--------------------------------------------------------------------------------------------------------




----------------------------------------- Iteration    1(  26)  ---------------------------------------


    POTLOK:  cpu time    0.10: real time    0.20
    SETDIJ:  cpu time    0.03: real time    0.05
    EDDIAG:  cpu time    0.88: real time    1.76
  RMM-DIIS:  cpu time    3.68: real time    7.35
    ORTHCH:  cpu time    0.18: real time    0.36
       DOS:  cpu time    0.00: real time    0.01
    CHARGE:  cpu time    0.35: real time    0.70
    MIXING:  cpu time    0.01: real time    0.02
    --------------------------------------------
      LOOP:  cpu time    5.22: real time   10.44

 eigenvalue-minimisations  :  1758
 total energy-change (2. order) :-0.1984605E+00  (-0.2647166E-01)
 number of electron     173.9999972 magnetization 
 augmentation part       53.1298585 magnetization 

 Broyden mixing:
  rms(total) = 0.12371E+01    rms(broyden)= 0.12354E+01
  rms(prec ) = 0.17393E+01
  weight for this iteration     100.00

 eigenvalues of (default mixing * dielectric matrix)
  average eigenvalue GAMMA=   0.3704
  1.9527  0.7298  0.7298  0.4397  0.4397  0.2378  0.1323  0.1323  0.1348  0.0618
  0.0577  0.0524  0.0459  0.0396

 Free energy of the ion-electron system (eV)
  ---------------------------------------------------
  alpha Z        PSCENC =       634.09262729
  Ewald energy   TEWEN  =    -10607.91764775
  -Hartree energ DENC   =     -4471.74759015
  -exchange      EXHF   =         0.00000000
  -V(xc)+E(xc)   XCENC  =       604.30386210
  PAW double counting   =     14939.43396510   -15082.34997195
  entropy T*S    EENTRO =         0.12918736
  eigenvalues    EBANDS =      -999.61232599
  atomic energy  EATOM  =     14851.27451460
  ---------------------------------------------------
  free energy    TOTEN  =      -132.39337940 eV

  energy without entropy =     -132.52256676  energy(sigma->0) =     -132.43644186


--------------------------------------------------------------------------------------------------------




----------------------------------------- Iteration    1(  27)  ---------------------------------------


    POTLOK:  cpu time    0.09: real time    0.18
    SETDIJ:  cpu time    0.02: real time    0.05
    EDDIAG:  cpu time    0.86: real time    1.52
  RMM-DIIS:  cpu time    3.78: real time    7.43
    ORTHCH:  cpu time    0.18: real time    0.37
       DOS:  cpu time    0.00: real time    0.01
    CHARGE:  cpu time    0.35: real time    0.70
    MIXING:  cpu time    0.01: real time    0.02
    --------------------------------------------
      LOOP:  cpu time    5.30: real time   10.27

 eigenvalue-minimisations  :  1889
 total energy-change (2. order) : 0.3703501E+00  (-0.5162760E-02)
 number of electron     173.9999977 magnetization 
 augmentation part       53.0787505 magnetization 

 Broyden mixing:
  rms(total) = 0.90565E+00    rms(broyden)= 0.90532E+00
  rms(prec ) = 0.12352E+01
  weight for this iteration     100.00

 eigenvalues of (default mixing * dielectric matrix)
  average eigenvalue GAMMA=   0.3613
  1.9371  0.7498  0.7498  0.4329  0.4329  0.2529  0.1719  0.1719  0.1315  0.1315
  0.0618  0.0576  0.0524  0.0459  0.0396

 Free energy of the ion-electron system (eV)
  ---------------------------------------------------
  alpha Z        PSCENC =       634.09262729
  Ewald energy   TEWEN  =    -10607.91764775
  -Hartree energ DENC   =     -4471.56212604
  -exchange      EXHF   =         0.00000000
  -V(xc)+E(xc)   XCENC  =       604.28231006
  PAW double counting   =     14917.01226432   -15060.17849366
  entropy T*S    EENTRO =         0.15802750
  eigenvalues    EBANDS =      -999.18450560
  atomic energy  EATOM  =     14851.27451460
  ---------------------------------------------------
  free energy    TOTEN  =      -132.02302928 eV

  energy without entropy =     -132.18105678  energy(sigma->0) =     -132.07570512


--------------------------------------------------------------------------------------------------------




----------------------------------------- Iteration    1(  28)  ---------------------------------------


    POTLOK:  cpu time    0.09: real time    0.18
    SETDIJ:  cpu time    0.02: real time    0.05
    EDDIAG:  cpu time    0.87: real time    1.55
  RMM-DIIS:  cpu time    4.07: real time    8.13
    ORTHCH:  cpu time    0.18: real time    0.35
       DOS:  cpu time    0.00: real time    0.01
    CHARGE:  cpu time    0.35: real time    0.50
    MIXING:  cpu time    0.01: real time    0.01
    --------------------------------------------
      LOOP:  cpu time    5.59: real time   10.78

 eigenvalue-minimisations  :  2005
 total energy-change (2. order) : 0.1902584E-01  (-0.1096869E-02)
 number of electron     173.9999976 magnetization 
 augmentation part       53.0714519 magnetization 

 Broyden mixing:
  rms(total) = 0.89844E+00    rms(broyden)= 0.89840E+00
  rms(prec ) = 0.12321E+01
  weight for this iteration     100.00

 eigenvalues of (default mixing * dielectric matrix)
  average eigenvalue GAMMA=   0.4852
  2.1094  1.4137  1.4137  0.5916  0.5916  0.3534  0.3534  0.2076  0.2076  0.1317
  0.1317  0.0618  0.0576  0.0524  0.0459  0.0396

 Free energy of the ion-electron system (eV)
  ---------------------------------------------------
  alpha Z        PSCENC =       634.09262729
  Ewald energy   TEWEN  =    -10607.91764775
  -Hartree energ DENC   =     -4471.25606013
  -exchange      EXHF   =         0.00000000
  -V(xc)+E(xc)   XCENC  =       604.27292750
  PAW double counting   =     14911.79537345   -15054.79252837
  entropy T*S    EENTRO =         0.16091002
  eigenvalues    EBANDS =      -999.63412005
  atomic energy  EATOM  =     14851.27451460
  ---------------------------------------------------
  free energy    TOTEN  =      -132.00400345 eV

  energy without entropy =     -132.16491346  energy(sigma->0) =     -132.05764012


--------------------------------------------------------------------------------------------------------




----------------------------------------- Iteration    1(  29)  ---------------------------------------


    POTLOK:  cpu time    0.09: real time    0.09
    SETDIJ:  cpu time    0.03: real time    0.03
    EDDIAG:  cpu time    0.86: real time    1.52
  RMM-DIIS:  cpu time    4.03: real time    8.06
    ORTHCH:  cpu time    0.18: real time    0.36
       DOS:  cpu time    0.00: real time    0.01
[...]
     41      -3.9026      2.00000
     42      -3.8621      2.00000
     43      -3.7389      2.00000
     44      -3.6967      2.00000
     45      -3.6118      2.00000
     46      -3.6007      2.00000
     47      -3.4916      2.00000
     48      -3.4518      2.00000
     49      -3.2176      2.00000
     50      -3.1713      2.00000
     51      -3.1504      2.00000
     52      -3.1121      2.00000
     53      -2.9434      2.00000
     54      -2.9334      2.00000
     55      -2.8606      2.00000
     56      -2.8213      2.00000
     57      -2.7847      2.00000
     58      -2.7700      2.00000
     59      -2.6461      2.00000
     60      -2.5923      2.00000
     61      -2.4415      2.00000
     62      -2.3934      2.00000
     63      -1.7151      2.00000
     64      -1.6268      2.00000
     65       0.9711      2.00001
     66       0.9830      2.00002
     67       1.0483      2.00012
     68       1.0633      2.00018
     69       1.1128      2.00066
     70       1.1504      2.00165
     71       1.1852      2.00358
     72       1.1908      2.00402
     73       1.2157      2.00663
     74       1.2401      2.01045
     75       1.2871      2.02240
     76       1.3010      2.02729
     77       1.3090      2.03035
     78       1.3298      2.03912
     79       1.3774      2.06052
     80       1.3850      2.06346
     81       1.3971      2.06742
     82       1.4047      2.06925
     83       1.4366      2.06860
     84       1.4491      2.06320
     85       1.4918      2.01042
     86       1.4982      1.99700
     87       1.7000      0.71034
     88       1.7111      0.62243
     89       1.8341     -0.00112
     90       1.8411     -0.01537
     91       1.9501     -0.06170
     92       1.9560     -0.05928
     93       2.0631     -0.01654
     94       2.1121     -0.00698
     95       2.2081     -0.00084
     96       2.2370     -0.00040
     97       2.3257     -0.00003
     98       2.3404     -0.00002
     99       2.4506     -0.00000
    100       2.4624     -0.00000
    101       2.5467     -0.00000
    102       2.5769     -0.00000
    103       2.8177     -0.00000
    104       2.8423     -0.00000

 k-point     8 :       0.5000    0.5000    0.5000
  band No.  band energies     occupation 
      1     -22.4729      2.00000
      2     -22.4325      2.00000
      3     -22.4023      2.00000
      4     -22.3810      2.00000
      5     -22.3418      2.00000
      6     -22.3134      2.00000
      7     -22.2422      2.00000
      8     -22.2154      2.00000
      9     -22.1749      2.00000
     10     -22.1179      2.00000
     11     -22.0076      2.00000
     12     -21.9889      2.00000
     13     -21.9062      2.00000
     14     -21.8412      2.00000
     15     -16.8428      2.00000
     16     -16.7405      2.00000
     17      -5.6667      2.00000
     18      -5.6549      2.00000
     19      -5.5303      2.00000
     20      -5.5211      2.00000
     21      -5.3019      2.00000
     22      -5.2613      2.00000
     23      -5.1706      2.00000
     24      -5.1517      2.00000
     25      -4.8868      2.00000
     26      -4.8687      2.00000
     27      -4.7387      2.00000
     28      -4.7208      2.00000
     29      -4.5413      2.00000
     30      -4.4976      2.00000
     31      -4.4164      2.00000
     32      -4.4055      2.00000
     33      -4.2206      2.00000
     34      -4.1916      2.00000
     35      -4.1376      2.00000
     36      -4.0874      2.00000
     37      -4.0818      2.00000
     38      -4.0514      2.00000
     39      -3.9974      2.00000
     40      -3.9684      2.00000
     41      -3.9112      2.00000
     42      -3.8640      2.00000
     43      -3.6618      2.00000
     44      -3.6241      2.00000
     45      -3.4343      2.00000
     46      -3.4236      2.00000
     47      -3.3940      2.00000
     48      -3.3481      2.00000
     49      -3.3165      2.00000
     50      -3.2540      2.00000
     51      -3.1848      2.00000
     52      -3.1095      2.00000
     53      -3.0271      2.00000
     54      -3.0191      2.00000
     55      -2.9752      2.00000
     56      -2.9398      2.00000
     57      -2.8003      2.00000
     58      -2.7577      2.00000
     59      -2.7444      2.00000
     60      -2.7014      2.00000
     61      -2.5652      2.00000
     62      -2.4756      2.00000
     63      -1.8378      2.00000
     64      -1.7525      2.00000
     65       0.8821      2.00000
     66       0.8977      2.00000
     67       0.9460      2.00000
     68       0.9643      2.00001
     69       1.0485      2.00012
     70       1.0591      2.00016
     71       1.1364      2.00119
     72       1.1393      2.00127
     73       1.1843      2.00351
     74       1.1930      2.00421
     75       1.2288      2.00851
     76       1.2430      2.01099
     77       1.3238      2.03649
     78       1.3457      2.04639
     79       1.3727      2.05858
     80       1.3791      2.06120
     81       1.3919      2.06585
     82       1.4121      2.07043
     83       1.4672      2.04806
     84       1.4836      2.02556
     85       1.5226      1.92847
     86       1.5253      1.91935
     87       1.6349      1.25321
     88       1.6403      1.20877
     89       1.7914      0.13294
     90       1.7991      0.10233
     91       1.9230     -0.06974
     92       1.9255     -0.06929
     93       2.0083     -0.03573
     94       2.0298     -0.02712
     95       2.1124     -0.00694
     96       2.1146     -0.00665
     97       2.3363     -0.00002
     98       2.3399     -0.00002
     99       2.4998     -0.00000
    100       2.5297     -0.00000
    101       2.6494     -0.00000
    102       2.6744     -0.00000
    103       3.0330     -0.00000
    104       3.0477     -0.00000


--------------------------------------------------------------------------------------------------------


 soft charge-density along one line, spin component           1
         0         1         2         3         4         5         6         7         8         9
 total charge-density along one line
 
 pseudopotential strength for first ion, spin component:           1
 -7.622  -0.005   0.056  -0.080   0.027  -8.102  -0.005   0.054
 -0.005  -7.583   0.102   0.019  -0.039  -0.005  -8.064   0.099
  0.056   0.102  -7.567  -0.018   0.025   0.054   0.099  -8.049
 -0.080   0.019  -0.018  -7.541   0.029  -0.078   0.018  -0.018
  0.027  -0.039   0.025   0.029  -7.489   0.026  -0.038   0.024
 -8.102  -0.005   0.054  -0.078   0.026  -8.541  -0.005   0.052
 -0.005  -8.064   0.099   0.018  -0.038  -0.005  -8.505   0.096
  0.054   0.099  -8.049  -0.018   0.024   0.052   0.096  -8.491
 -0.078   0.018  -0.018  -8.024   0.028  -0.075   0.017  -0.017
  0.026  -0.038   0.024   0.028  -7.974   0.025  -0.037   0.024
  0.007  -0.003   0.001  -0.002   0.001   0.007  -0.003   0.001
  0.013  -0.005   0.003  -0.003   0.002   0.013  -0.005   0.003
 -0.002   0.001   0.001   0.000   0.002  -0.002   0.001   0.001
  0.000  -0.002   0.002  -0.003   0.000   0.000  -0.002   0.002
 -0.002   0.000   0.001   0.002  -0.002  -0.002   0.000   0.001
 -0.003   0.001   0.002   0.000   0.002  -0.003   0.001   0.002
  0.000  -0.002   0.001  -0.003   0.000   0.000  -0.002   0.001
 -0.003   0.000   0.001   0.001  -0.003  -0.003   0.000   0.001
 total augmentation occupancy for first ion, spin component:           1
  3.173  -0.114   0.197  -0.943   0.234  -2.502  -0.081   0.313  -0.224   0.116  -0.343   0.066  -0.001  -0.008   0.008  -0.001
 -0.114   3.646   1.113   0.632  -0.347  -0.072  -2.390   0.244  -0.146  -0.071   0.047  -0.000   0.027  -0.060  -0.014  -0.003
  0.197   1.113   3.971  -0.293   0.315   0.335   0.257  -2.431   0.047  -0.013  -0.092   0.017  -0.031   0.034  -0.001   0.009
 -0.943   0.632  -0.293   4.300   0.359  -0.235  -0.160   0.046  -2.336   0.001   0.099  -0.011  -0.014  -0.010  -0.003   0.004
  0.234  -0.347   0.315   0.359   4.908   0.123  -0.083  -0.001   0.011  -2.312  -0.015   0.001   0.006  -0.017  -0.007   0.001
 -2.502  -0.072   0.335  -0.235   0.123   2.710   0.197  -0.594   0.794  -0.284   0.354  -0.074  -0.002   0.013  -0.012   0.000
 -0.081  -2.390   0.257  -0.160  -0.083   0.197   2.311  -0.921  -0.076   0.276  -0.038   0.001  -0.038   0.068   0.016   0.006
  0.313   0.244  -2.431   0.046  -0.001  -0.594  -0.921   2.228   0.042  -0.146   0.095  -0.019   0.038  -0.045  -0.000  -0.008
 -0.224  -0.146   0.047  -2.336   0.011   0.794  -0.076   0.042   1.898  -0.201  -0.057   0.008   0.016   0.008  -0.001  -0.004
  0.116  -0.071  -0.013   0.001  -2.312  -0.284   0.276  -0.146  -0.201   1.532  -0.004   0.002  -0.009   0.019   0.010   0.001
 -0.343   0.047  -0.092   0.099  -0.015   0.354  -0.038   0.095  -0.057  -0.004   1.441  -0.268   0.011  -0.031   0.003  -0.003
  0.066  -0.000   0.017  -0.011   0.001  -0.074   0.001  -0.019   0.008   0.002  -0.268   0.057  -0.002   0.006  -0.001   0.001
 -0.001   0.027  -0.031  -0.014   0.006  -0.002  -0.038   0.038   0.016  -0.009   0.011  -0.002   0.177  -0.003   0.028  -0.029
 -0.008  -0.060   0.034  -0.010  -0.017   0.013   0.068  -0.045   0.008   0.019  -0.031   0.006  -0.003   0.186  -0.000   0.000
  0.008  -0.014  -0.001  -0.003  -0.007  -0.012   0.016  -0.000  -0.001   0.010   0.003  -0.001   0.028  -0.000   0.173  -0.005
 -0.001  -0.003   0.009   0.004   0.001   0.000   0.006  -0.008  -0.004   0.001  -0.003   0.001  -0.029   0.000  -0.005   0.005
  0.004   0.011  -0.005  -0.002   0.004  -0.003  -0.013   0.009  -0.000  -0.004   0.006  -0.001   0.000  -0.030   0.000  -0.000
 -0.004   0.004  -0.000   0.005  -0.001   0.003  -0.004   0.000  -0.002  -0.001  -0.001   0.000  -0.005   0.000  -0.028   0.001


------------------------ aborting loop because EDIFF is reached ----------------------------------------


    CHARGE:  cpu time    0.36: real time    0.59
    FORLOC:  cpu time    0.03: real time    0.07
    FORNL :  cpu time    1.84: real time    3.45
    STRESS:  cpu time    5.62: real time   11.23
    FORCOR:  cpu time    0.14: real time    0.28
    FORHAR:  cpu time    0.05: real time    0.10
    MIXING:  cpu time    0.02: real time    0.04
    OFIELD:  cpu time    0.00: real time    0.00

  FORCE on cell =-STRESS in cart. coord.  units (eV):
  Direction    XX          YY          ZZ          XY          YZ          ZX
  --------------------------------------------------------------------------------------
  Alpha Z   634.09263   634.09263   634.09263
  Ewald   -3660.79313 -3842.47821 -3104.67843    11.14729   -12.13501  -354.01961
  Hartree  1428.28024  1323.54283  1718.54761     6.25653    -5.86081  -203.74528
  E(xc)    -923.05806  -923.31922  -922.30116     0.01464    -0.02174    -0.42510
  Local    -342.79587   -64.22171 -1160.83871   -17.21251    17.61204   542.86983
  n-local  -852.03475  -852.19207  -849.52910     0.09184    -0.18363    -0.59277
  augment   568.33045   569.54394   563.16335    -0.01169     0.06772     2.03063
  Kinetic  3099.56899  3108.10011  3067.15611    -0.23219     0.49346    16.84567
  Fock        0.00000     0.00000     0.00000     0.00000     0.00000     0.00000
  -------------------------------------------------------------------------------------
  Total     -48.40950   -46.93170   -54.38770     0.05390    -0.02797     2.96337
  in kB    -259.61450  -251.68922  -291.67486     0.28908    -0.14998    15.89222
  external pressure =     -267.66 kB  Pullay stress =        0.00 kB


 VOLUME and BASIS-vectors are now :
 -----------------------------------------------------------------------------
  energy-cutoff  :      400.00
  volume of cell :      298.75
      direct lattice vectors                 reciprocal lattice vectors
     5.735919000  0.000000000 -0.790267000     0.174339979  0.000000000  0.000000000
     0.000000000  4.785442000  0.000000000     0.000000000  0.208967113  0.000000000
     0.000000000  0.000000000 10.883966000     0.012658541  0.000000000  0.091878273

  length of vectors
     5.790102651  4.785442000 10.883966000     0.174339979  0.208967113  0.092746190


 FORCES acting on ions
    electron-ion (+dipol)            ewald-force                    non-local-force                 convergence-correction
 -----------------------------------------------------------------------------------------------
   -.114E+01 0.338E+01 -.423E+01   0.138E+01 -.311E+01 0.350E+01   -.824E-01 -.283E+00 0.724E+00   0.225E-02 0.182E-02 0.544E-01
   -.103E+00 0.348E+01 0.932E+01   -.314E-01 -.353E+01 -.935E+01   0.252E+00 0.115E+00 -.316E-02   -.970E-02 0.166E-02 -.545E-01
   0.871E+01 -.180E+02 -.242E+02   -.592E+01 0.160E+02 0.229E+02   -.174E+01 0.123E+01 0.111E+01   0.358E-01 -.199E-02 0.308E-01
   -.101E+02 0.899E+01 -.156E+01   0.123E+02 -.736E+01 0.554E+00   -.118E+01 -.100E+01 0.367E+00   0.170E-01 0.930E-03 -.472E-01
   -.104E+02 0.537E+00 0.651E+01   0.111E+02 -.204E+01 -.455E+01   -.458E+00 0.136E+01 -.194E+01   0.924E-02 -.712E-02 -.531E-01
   0.377E+01 -.637E+01 0.119E+02   -.314E+01 0.774E+01 -.974E+01   -.501E+00 -.114E+01 -.218E+01   -.132E-02 -.608E-02 0.616E-01
   0.386E+01 -.652E+01 -.119E+02   -.593E+01 0.404E+01 0.105E+02   0.119E+01 0.121E+01 0.820E+00   -.329E-01 -.671E-02 -.329E-01
   0.316E+01 0.368E+01 -.177E+01   -.531E+01 -.144E+01 0.791E+00   0.110E+01 -.107E+01 0.649E+00   -.119E-01 -.227E-02 0.477E-01
   -.276E+02 0.416E+02 -.629E+02   0.296E+02 -.450E+02 0.676E+02   -.262E+01 0.347E+01 -.389E+01   0.116E+00 -.748E-01 -.426E-02
   -.157E+02 -.312E+02 -.642E+02   0.170E+02 0.335E+02 0.694E+02   -.187E+01 -.210E+01 -.416E+01   -.820E-01 -.486E-01 0.404E-01
   -.370E+02 0.254E+02 0.309E+02   0.389E+02 -.245E+02 -.331E+02   -.147E+01 -.133E+01 0.204E+01   -.108E+00 0.420E-01 -.435E-01
   -.348E+02 -.244E+02 0.329E+02   0.366E+02 0.236E+02 -.348E+02   -.155E+01 0.126E+01 0.166E+01   -.166E-03 -.598E-01 -.369E-01
   0.134E+02 -.178E+02 0.466E+02   -.121E+02 0.196E+02 -.505E+02   -.120E+01 -.204E+01 0.385E+01   -.114E+00 0.981E-01 0.216E-01
   0.218E+02 0.150E+02 0.246E+02   -.220E+02 -.166E+02 -.267E+02   0.656E-01 0.183E+01 0.263E+01   0.737E-01 0.153E-01 -.154E+00
   -.220E+02 0.123E+02 -.242E+02   0.222E+02 -.126E+02 0.253E+02   -.497E+00 0.643E+00 -.130E+01   0.101E+00 -.857E-01 0.360E-01
   -.160E+02 -.103E+02 -.318E+02   0.163E+02 0.100E+02 0.334E+02   -.342E+00 0.136E-01 -.201E+01   -.116E+00 -.473E-01 0.106E+00
   0.348E+02 -.380E+02 -.207E+02   -.370E+02 0.402E+02 0.200E+02   0.188E+01 -.223E+01 0.140E+01   0.863E-01 -.238E-01 -.677E-01
   0.321E+02 0.291E+02 -.260E+02   -.343E+02 -.308E+02 0.263E+02   0.196E+01 0.164E+01 0.215E+00   0.141E-01 0.670E-01 0.131E+00
   0.104E+02 0.292E+01 0.274E+02   -.120E+02 -.353E+01 -.307E+02   0.117E+01 0.114E+01 0.318E+01   0.368E-01 -.495E-01 0.821E-01
   0.178E+02 0.347E+01 0.235E+02   -.208E+02 -.209E+01 -.261E+02   0.251E+01 -.208E+01 0.275E+01   0.835E-01 -.661E-02 -.177E+00
   0.197E+02 -.352E+02 0.461E+02   -.205E+02 0.354E+02 -.450E+02   0.105E+01 -.892E-01 -.189E+01   -.872E-01 0.581E-01 -.778E-01
   0.256E+02 0.315E+02 0.452E+02   -.265E+02 -.327E+02 -.436E+02   0.964E+00 0.106E+01 -.256E+01   0.119E+00 0.817E-01 0.224E-01
   -.104E+02 0.869E+01 -.160E+02   0.110E+02 -.111E+02 0.155E+02   -.722E-01 0.192E+01 0.852E+00   -.243E-01 0.287E-01 0.289E-01
   -.878E+01 -.464E+01 -.184E+02   0.902E+01 0.630E+01 0.182E+02   0.263E+00 -.124E+01 0.528E+00   -.886E-01 -.910E-02 0.821E-01
 -----------------------------------------------------------------------------------------------
   0.116E+01 -.222E+01 -.280E+01   0.462E-13 0.711E-13 0.924E-13   -.117E+01 0.227E+01 0.283E+01   0.190E-01 -.341E-01 -.430E-02
 
 
 POSITION                                       TOTAL-FORCE (eV/Angst)
 -----------------------------------------------------------------------------------
      1.41674      1.18921      7.91788         0.156992     -0.009565      0.045912
      1.41674      3.59623      2.48480         0.107911      0.064268     -0.084016
      2.95318      1.17232      4.95416         1.095436     -0.761358     -0.171950
      2.95318      3.61312     10.46394         0.968003      0.623876     -0.687150
      4.32339      1.10675      2.28709         0.239699     -0.151220     -0.032719
      4.32339      3.67869      7.72908         0.130240      0.221577      0.026770
      5.68119      1.15507     10.06346        -0.912881     -1.271318     -0.620565
      5.68119      3.63037      4.63247        -1.060739      1.172874     -0.278636
      4.46583      0.27984      3.92608        -0.469773      0.000893      0.842056
      4.50461      4.50560      9.36272        -0.638035      0.087662      1.072689
      0.07858      0.27543      1.97861         0.363006     -0.364649     -0.185590
      0.07858      4.51001      7.42059         0.334657      0.337653     -0.228047
      1.27480      2.15077      6.11830        -0.011977     -0.184448     -0.054525
      1.30313      2.63467      0.59109        -0.042122      0.288686      0.387771
      1.60166      0.24763      9.81475        -0.165312      0.275581     -0.232007
      1.60166      4.52989      4.37277        -0.184128     -0.254088     -0.293690
      2.76400      2.17034      3.05678        -0.231234      0.004993      0.613850
      2.76400      2.61510      8.49876        -0.195651      0.047673      0.676566
      2.99722      0.17036      6.92466        -0.344245      0.490625      0.013954
      2.99722      4.65395      1.48267        -0.435984     -0.711142     -0.002865
      4.14336      2.09821      0.42061         0.197181      0.179829     -0.811814
      4.14336      2.66540      5.86260         0.178263     -0.036176     -0.892061
      5.55698      2.18458      8.15493         0.510802     -0.461748      0.431088
      5.58353      2.60086      2.70929         0.409892      0.409521      0.464979
 -----------------------------------------------------------------------------------
    total drift:                                0.008251      0.012854      0.022971


--------------------------------------------------------------------------------------------------------



  FREE ENERGIE OF THE ION-ELECTRON SYSTEM (eV)
  ---------------------------------------------------
  free  energy   TOTEN  =      -132.08601961 eV

  energy  without entropy=     -132.20307262  energy(sigma->0) =     -132.12503728
 


--------------------------------------------------------------------------------------------------------


    POTLOK:  cpu time    0.12: real time    0.24


--------------------------------------------------------------------------------------------------------


 Quasi-Newton relaxation of ions (Broydens 2nd method)
  g(Force)  = 0.852E+00   g(Stress)= 0.000E+00

 Reset! Starting new Quasi-Newton update for ions 


--------------------------------------------------------------------------------------------------------


     LOOP+:  cpu time  210.51: real time  404.87
    4ORBIT:  cpu time    0.00: real time    0.00

 total amount of memory used by VASP on root node   141667. kBytes
========================================================================

   base      :      30000. kBytes
   nonlr-proj:       4329. kBytes
   fftplans  :      10056. kBytes
   grid      :      20299. kBytes
   one-center:        373. kBytes
   wavefun   :      76610. kBytes
 
  
  
 General timing and accounting informations for this job:
 ========================================================
  
                  Total CPU time used (sec):      211.990
                            User time (sec):      211.746
                          System time (sec):        0.244
                         Elapsed time (sec):      407.968
  
                   Maximum memory used (kb):      163572.
                   Average memory used (kb):           0.
  
                          Minor page faults:       115337
                          Major page faults:            0
                 Voluntary context switches:          573
