 running on    1 total cores
 distrk:  each k-point on    1 cores,    1 groups
 distr:  one band on    1 cores,    1 groups
 using from now: INCAR     
 vasp.5.3.5 31Mar14 (build Aug 29 2014 19:41:47) complex                        
  
 POSCAR found type information on POSCAR  Fe O  F 
 POSCAR found :  3 types and      24 ions
 scaLAPACK will be used
 LDA part: xc-table for Pade appr. of Perdew
 POSCAR, INCAR and KPOINTS ok, starting setup
 WARNING: small aliasing (wrap around) errors must be expected
 FFT: planning ...
 WAVECAR not read
 entering main loop
       N       E                     dE             d eps       ncg     rms          rms(c)
RMM:   1     0.212819122993E+04    0.21282E+04   -0.65457E+04   832   0.144E+03
RMM:   2     0.663192447903E+03   -0.14650E+04   -0.16498E+04   832   0.414E+02
RMM:   3     0.226203033321E+03   -0.43699E+03   -0.43402E+03   832   0.265E+02
RMM:   4     0.422540249749E+02   -0.18395E+03   -0.15656E+03   832   0.259E+02
RMM:   5    -0.623801383686E+02   -0.10463E+03   -0.81981E+02   832   0.127E+02
RMM:   6    -0.110269269728E+03   -0.47889E+02   -0.36200E+02   832   0.115E+02
RMM:   7    -0.135058164214E+03   -0.24789E+02   -0.19908E+02   832   0.565E+01
RMM:   8    -0.145001466507E+03   -0.99433E+01   -0.80777E+01   832   0.556E+01
RMM:   9    -0.154924689933E+03   -0.99232E+01   -0.91058E+01  2653   0.253E+01
RMM:  10    -0.155131641773E+03   -0.20695E+00   -0.43477E+00  2646   0.411E+00
RMM:  11    -0.155325985374E+03   -0.19434E+00   -0.17097E+00  2418   0.131E+00
RMM:  12    -0.155415520524E+03   -0.89535E-01   -0.81429E-01  1980   0.657E-01    0.384E+01
RMM:  13    -0.146681307323E+03    0.87342E+01   -0.19074E+02  2037   0.560E+01    0.620E+01
RMM:  14    -0.183598671061E+03   -0.36917E+02   -0.43413E+01  1786   0.267E+01    0.941E+01
RMM:  15    -0.161467151784E+03    0.22132E+02   -0.17055E+01  1898   0.177E+01    0.866E+01
RMM:  16    -0.142299990512E+03    0.19167E+02   -0.59052E+00  1859   0.992E+00    0.487E+01
RMM:  17    -0.147877693957E+03   -0.55777E+01   -0.87064E+00  1829   0.111E+01    0.658E+01
RMM:  18    -0.172676368543E+03   -0.24799E+02   -0.12571E+01  1875   0.127E+01    0.856E+01
RMM:  19    -0.143811788727E+03    0.28865E+02   -0.92772E+00  1935   0.118E+01    0.667E+01
RMM:  20    -0.139704337353E+03    0.41075E+01   -0.32480E+00  1836   0.715E+00    0.553E+01
RMM:  21    -0.135326852056E+03    0.43775E+01   -0.27382E+00  2007   0.606E+00    0.358E+01
RMM:  22    -0.134155620105E+03    0.11712E+01   -0.13137E+00  1797   0.496E+00    0.367E+01
RMM:  23    -0.135100075663E+03   -0.94446E+00   -0.92111E-01  1930   0.396E+00    0.424E+01
RMM:  24    -0.132649122519E+03    0.24510E+01   -0.68995E-01  1720   0.371E+00    0.152E+01
RMM:  25    -0.132194918861E+03    0.45420E+00   -0.35933E-01  2022   0.242E+00    0.172E+01
RMM:  26    -0.132393379403E+03   -0.19846E+00   -0.26472E-01  1758   0.215E+00    0.124E+01
RMM:  27    -0.132023029283E+03    0.37035E+00   -0.51628E-02  1889   0.108E+00    0.906E+00
RMM:  28    -0.132004003445E+03    0.19026E-01   -0.10969E-02  2005   0.398E-01    0.898E+00
RMM:  29    -0.132199513130E+03   -0.19551E+00   -0.42478E-02  1973   0.904E-01    0.930E+00
RMM:  30    -0.132206702634E+03   -0.71895E-02   -0.22892E-02  1953   0.634E-01    0.736E+00
RMM:  31    -0.132178462814E+03    0.28240E-01   -0.64502E-03  1936   0.349E-01    0.679E+00
RMM:  32    -0.132157264319E+03    0.21198E-01   -0.29581E-03  1735   0.214E-01    0.585E+00
RMM:  33    -0.132135739495E+03    0.21525E-01   -0.21051E-03  1629   0.201E-01    0.509E+00
RMM:  34    -0.132110482427E+03    0.25257E-01   -0.33183E-03  1715   0.245E-01    0.379E+00
RMM:  35    -0.132097505865E+03    0.12977E-01   -0.21018E-03  1616   0.188E-01    0.297E+00
RMM:  36    -0.132085861757E+03    0.11644E-01   -0.55007E-03  1698   0.317E-01    0.112E+00
RMM:  37    -0.132085320203E+03    0.54155E-03   -0.89561E-04  1444   0.124E-01    0.110E+00
RMM:  38    -0.132084981895E+03    0.33831E-03   -0.36742E-04  1152   0.736E-02    0.789E-01
RMM:  39    -0.132085473813E+03   -0.49192E-03   -0.16662E-04   972   0.626E-02    0.777E-01
RMM:  40    -0.132085782186E+03   -0.30837E-03   -0.29978E-04  1094   0.825E-02    0.343E-01
RMM:  41    -0.132085995161E+03   -0.21297E-03   -0.83836E-05   887   0.503E-02    0.358E-01
RMM:  42    -0.132086019612E+03   -0.24451E-04   -0.11397E-04   887   0.518E-02
   1 F= -.13208602E+03 E0= -.13212504E+03  d E =-.132086E+03
 BRION: g(F)=  0.852E+00 g(S)=  0.000E+00
