<?xml version="1.0" encoding="ISO-8859-1"?>
<modeling>
 <generator>
  <i name="program" type="string">vasp </i>
  <i name="version" type="string">5.3.5  </i>
  <i name="subversion" type="string">31Mar14 (build Aug 29 2014 19:41:47) complex                          parallel </i>
  <i name="platform" type="string">LinuxIFC </i>
  <i name="date" type="string">2019 01 22 </i>
  <i name="time" type="string">17:58:42 </i>
 </generator>
 <incar>
  <i type="string" name="SYSTEM"> tssm</i>
  <i type="int" name="ISTART">     0</i>
  <i type="string" name="PREC">normal</i>
  <i type="string" name="ALGO"> VeryFast</i>
  <i type="int" name="ISPIN">     1</i>
  <i name="AMIN">      0.01000000</i>
  <i type="int" name="ICHARG">     2</i>
  <i type="int" name="NELM">   300</i>
  <i type="int" name="IBRION">     1</i>
  <i name="EDIFF">      0.00010000</i>
  <i name="EDIFFG">      0.00100000</i>
  <i type="int" name="NSW">     1</i>
  <i type="int" name="ISIF">     2</i>
  <i type="int" name="ISYM">     0</i>
  <i name="ENCUT">    400.00000000</i>
  <i type="string" name="LREAL"> Auto</i>
  <i type="int" name="ISMEAR">     1</i>
  <i name="SIGMA">      0.20000000</i>
  <i type="logical" name="LWAVE"> F  </i>
  <i type="int" name="NELM">   300</i>
 </incar>
 <kpoints>
  <generation param="Gamma">
   <v type="int" name="divisions">       2        2        2 </v>
   <v name="usershift">      0.00000000       0.00000000       0.00000000 </v>
   <v name="genvec1">      0.50000000       0.00000000       0.00000000 </v>
   <v name="genvec2">      0.00000000       0.50000000       0.00000000 </v>
   <v name="genvec3">     -0.00000000       0.00000000       0.50000000 </v>
   <v name="shift">      0.00000000       0.00000000       0.00000000 </v>
  </generation>
  <varray name="kpointlist" >
   <v>       0.00000000       0.00000000       0.00000000 </v>
   <v>       0.50000000       0.00000000       0.00000000 </v>
   <v>       0.00000000       0.50000000       0.00000000 </v>
   <v>       0.50000000       0.50000000       0.00000000 </v>
   <v>      -0.00000000       0.00000000       0.50000000 </v>
   <v>       0.50000000       0.00000000       0.50000000 </v>
   <v>      -0.00000000       0.50000000       0.50000000 </v>
   <v>       0.50000000       0.50000000       0.50000000 </v>
  </varray>
  <varray name="weights" >
   <v>       0.12500000 </v>
   <v>       0.12500000 </v>
   <v>       0.12500000 </v>
   <v>       0.12500000 </v>
   <v>       0.12500000 </v>
   <v>       0.12500000 </v>
   <v>       0.12500000 </v>
   <v>       0.12500000 </v>
  </varray>
 </kpoints>
 <parameters>
  <separator name="general" >
   <i type="string" name="SYSTEM">tssm</i>
   <i type="logical" name="LCOMPAT"> F  </i>
  </separator>
  <separator name="electronic" >
   <i type="string" name="PREC">normal</i>
   <i name="ENMAX">    400.00000000</i>
   <i name="ENAUG">    613.61400000</i>
   <i name="EDIFF">      0.00010000</i>
   <i type="int" name="IALGO">    48</i>
   <i type="int" name="IWAVPR">    11</i>
   <i type="int" name="NBANDS">   104</i>
   <i name="NELECT">    174.00000000</i>
   <i type="int" name="TURBO">     0</i>
   <i type="int" name="IRESTART">     0</i>
   <i type="int" name="NREBOOT">     0</i>
   <i type="int" name="NMIN">     0</i>
   <i name="EREF">      0.00000000</i>
   <separator name="electronic smearing" >
    <i type="int" name="ISMEAR">     1</i>
    <i name="SIGMA">      0.20000000</i>
    <i name="KSPACING">      0.50000000</i>
    <i type="logical" name="KGAMMA"> T  </i>
   </separator>
   <separator name="electronic projectors" >
    <i type="logical" name="LREAL"> T  </i>
    <v name="ROPT">     -0.00050000     -0.00050000     -0.00050000</v>
    <i type="int" name="LMAXPAW">  -100</i>
    <i type="int" name="LMAXMIX">     2</i>
    <i type="logical" name="NLSPLINE"> F  </i>
   </separator>
   <separator name="electronic startup" >
    <i type="int" name="ISTART">     0</i>
    <i type="int" name="ICHARG">     2</i>
    <i type="int" name="INIWAV">     1</i>
   </separator>
   <separator name="electronic spin" >
    <i type="int" name="ISPIN">     1</i>
    <i type="logical" name="LNONCOLLINEAR"> F  </i>
    <v name="MAGMOM">      1.00000000      1.00000000      1.00000000      1.00000000      1.00000000      1.00000000      1.00000000      1.00000000      1.00000000      1.00000000      1.00000000      1.00000000      1.00000000      1.00000000      1.00000000      1.00000000      1.00000000      1.00000000      1.00000000      1.00000000
      1.00000000      1.00000000      1.00000000      1.00000000</v>
    <i name="NUPDOWN">     -1.00000000</i>
    <i type="logical" name="LSORBIT"> F  </i>
    <v name="SAXIS">      0.00000000      0.00000000      1.00000000</v>
    <i type="logical" name="LSPIRAL"> F  </i>
    <v name="QSPIRAL">      0.00000000      0.00000000      0.00000000</v>
    <i type="logical" name="LZEROZ"> F  </i>
   </separator>
   <separator name="electronic exchange-correlation" >
    <i type="logical" name="LASPH"> F  </i>
    <i type="logical" name="LMETAGGA"> F  </i>
   </separator>
   <separator name="electronic convergence" >
    <i type="int" name="NELM">   300</i>
    <i type="int" name="NELMDL">   -12</i>
    <i type="int" name="NELMIN">     2</i>
    <i name="ENINI">    400.00000000</i>
    <separator name="electronic convergence detail" >
     <i type="logical" name="LDIAG"> T  </i>
     <i type="logical" name="LSUBROT"> F  </i>
     <i name="WEIMIN">      0.00100000</i>
     <i name="EBREAK">      0.00000024</i>
     <i name="DEPER">      0.30000000</i>
     <i type="int" name="NRMM">     4</i>
     <i name="TIME">      0.40000000</i>
    </separator>
   </separator>
   <separator name="electronic mixer" >
    <i name="AMIX">      0.40000000</i>
    <i name="BMIX">      1.00000000</i>
    <i name="AMIN">      0.01000000</i>
    <i name="AMIX_MAG">      1.60000000</i>
    <i name="BMIX_MAG">      1.00000000</i>
    <separator name="electronic mixer details" >
     <i type="int" name="IMIX">     4</i>
     <i type="int" name="MAXMIX">   -45</i>
     <i name="WC">    100.00000000</i>
     <i type="int" name="INIMIX">     1</i>
     <i type="int" name="MIXPRE">     1</i>
     <i type="int" name="MREMOVE">     5</i>
    </separator>
   </separator>
   <separator name="electronic dipolcorrection" >
    <i type="logical" name="LDIPOL"> F  </i>
    <i type="logical" name="LMONO"> F  </i>
    <i type="int" name="IDIPOL">     0</i>
    <i name="EPSILON">      1.00000000</i>
    <v name="DIPOL">   -100.00000000   -100.00000000   -100.00000000</v>
    <i name="EFIELD">      0.00000000</i>
   </separator>
  </separator>
  <separator name="grids" >
   <i type="int" name="NGX">    28</i>
   <i type="int" name="NGY">    24</i>
   <i type="int" name="NGZ">    54</i>
   <i type="int" name="NGXF">    56</i>
   <i type="int" name="NGYF">    48</i>
   <i type="int" name="NGZF">   108</i>
   <i type="logical" name="ADDGRID"> F  </i>
  </separator>
  <separator name="ionic" >
   <i type="int" name="NSW">     1</i>
   <i type="int" name="IBRION">     1</i>
   <i type="int" name="ISIF">     2</i>
   <i name="PSTRESS">      0.00000000</i>
   <i name="EDIFFG">      0.00100000</i>
   <i type="int" name="NFREE">     0</i>
   <i name="POTIM">      0.50000000</i>
   <i name="SMASS">     -3.00000000</i>
   <i name="SCALEE">      1.00000000</i>
  </separator>
  <separator name="ionic md" >
   <i name="TEBEG">      0.00010000</i>
   <i name="TEEND">      0.00010000</i>
   <i type="int" name="NBLOCK">     1</i>
   <i type="int" name="KBLOCK">     1</i>
   <i type="int" name="NPACO">   256</i>
   <i name="APACO">     16.00000000</i>
  </separator>
  <separator name="symmetry" >
   <i type="int" name="ISYM">     0</i>
   <i name="SYMPREC">      0.00001000</i>
  </separator>
  <separator name="dos" >
   <i type="logical" name="LORBIT"> F  </i>
   <v name="RWIGS">     -1.00000000     -1.00000000     -1.00000000</v>
   <i type="int" name="NEDOS">   301</i>
   <i name="EMIN">     10.00000000</i>
   <i name="EMAX">    -10.00000000</i>
   <i name="EFERMI">      0.00000000</i>
  </separator>
  <separator name="writing" >
   <i type="int" name="NWRITE">     2</i>
   <i type="logical" name="LWAVE"> F  </i>
   <i type="logical" name="LCHARG"> T  </i>
   <i type="logical" name="LPARD"> F  </i>
   <i type="logical" name="LVTOT"> F  </i>
   <i type="logical" name="LVHAR"> F  </i>
   <i type="logical" name="LELF"> F  </i>
   <i type="logical" name="LOPTICS"> F  </i>
   <v name="STM">      0.00000000      0.00000000      0.00000000      0.00000000      0.00000000      0.00000000      0.00000000</v>
  </separator>
  <separator name="performance" >
   <i type="int" name="NPAR">     1</i>
   <i type="int" name="NSIM">     4</i>
   <i type="int" name="NBLK">    -1</i>
   <i type="logical" name="LPLANE"> T  </i>
   <i type="logical" name="LSCALAPACK"> T  </i>
   <i type="logical" name="LSCAAWARE"> F  </i>
   <i type="logical" name="LSCALU"> F  </i>
   <i type="logical" name="LASYNC"> F  </i>
   <i type="logical" name="LORBITALREAL"> F  </i>
  </separator>
  <separator name="miscellaneous" >
   <i type="int" name="IDIOT">     3</i>
   <i type="logical" name="LMUSIC"> F  </i>
   <v name="POMASS">     55.84700000     16.00000000     18.99800000</v>
   <v name="DARWINR">      0.00000000      0.00000000      0.00000000</v>
   <v name="DARWINV">      1.00000000      1.00000000      1.00000000</v>
   <i type="logical" name="LCORR"> T  </i>
  </separator>
  <i type="logical" name="GGA_COMPAT"> T  </i>
  <i type="logical" name="LBERRY"> F  </i>
  <i type="int" name="ICORELEVEL">     0</i>
  <i type="logical" name="LDAU"> F  </i>
  <i type="int" name="I_CONSTRAINED_M">     0</i>
  <separator name="electronic exchange-correlation" >
   <i type="string" name="GGA">--</i>
   <i type="int" name="VOSKOWN">     0</i>
   <i type="logical" name="LHFCALC"> F  </i>
   <i type="string" name="PRECFOCK"></i>
   <i type="logical" name="LSYMGRAD"> F  </i>
   <i type="logical" name="LHFONE"> F  </i>
   <i type="logical" name="LRHFCALC"> F  </i>
   <i type="logical" name="LTHOMAS"> F  </i>
   <i type="logical" name="LMODELHF"> F  </i>
   <i name="ENCUT4O">     -1.00000000</i>
   <i type="int" name="EXXOEP">     0</i>
   <i type="int" name="FOURORBIT">     0</i>
   <i name="AEXX">      0.00000000</i>
   <i name="HFALPHA">      0.00000000</i>
   <i name="MCALPHA">      0.00000000</i>
   <i name="ALDAX">      1.00000000</i>
   <i name="AGGAX">      1.00000000</i>
   <i name="ALDAC">      1.00000000</i>
   <i name="AGGAC">      1.00000000</i>
   <i type="int" name="NKREDX">     1</i>
   <i type="int" name="NKREDY">     1</i>
   <i type="int" name="NKREDZ">     1</i>
   <i type="logical" name="SHIFTRED"> F  </i>
   <i type="logical" name="ODDONLY"> F  </i>
   <i type="logical" name="EVENONLY"> F  </i>
   <i type="int" name="LMAXFOCK">     0</i>
   <i type="int" name="NMAXFOCKAE">     0</i>
   <i type="logical" name="LFOCKAEDFT"> F  </i>
   <i name="HFSCREEN">      0.00000000</i>
   <i name="HFSCREENC">      0.00000000</i>
   <i type="int" name="NBANDSGWLOW">     0</i>
  </separator>
  <separator name="vdW DFT" >
   <i type="logical" name="LUSE_VDW"> F  </i>
   <i name="Zab_VDW">     -0.84910000</i>
   <i name="PARAM1">      0.12340000</i>
   <i name="PARAM2">      1.00000000</i>
   <i name="PARAM3">      0.00000000</i>
  </separator>
  <separator name="model GW" >
   <i type="int" name="MODEL_GW">     0</i>
   <i name="MODEL_EPS0">      7.46882445</i>
   <i name="MODEL_ALPHA">      1.00000000</i>
  </separator>
  <separator name="linear response parameters" >
   <i type="logical" name="LEPSILON"> F  </i>
   <i type="logical" name="LRPA"> F  </i>
   <i type="logical" name="LNABLA"> F  </i>
   <i type="logical" name="LVEL"> F  </i>
   <i type="int" name="KINTER">     0</i>
   <i name="CSHIFT">      0.10000000</i>
   <i name="OMEGAMAX">     -1.00000000</i>
   <i name="DEG_THRESHOLD">      0.00200000</i>
  </separator>
  <separator name="orbital magnetization" >
   <i type="logical" name="NUCIND"> F  </i>
   <v name="MAGPOS">      0.00000000      0.00000000      0.00000000</v>
   <i type="logical" name="LNICSALL"> T  </i>
   <i type="logical" name="ORBITALMAG"> F  </i>
   <i type="logical" name="LMAGBLOCH"> F  </i>
   <i type="logical" name="LCHIMAG"> F  </i>
   <i type="logical" name="LGAUGE"> T  </i>
   <i type="int" name="MAGATOM">     0</i>
   <v name="MAGDIPOL">      0.00000000      0.00000000      0.00000000</v>
   <v name="AVECCONST">      0.00000000      0.00000000      0.00000000</v>
  </separator>
  <separator name="response functions" >
   <i type="logical" name="LADDER"> F  </i>
   <i type="logical" name="LFXC"> F  </i>
   <i type="logical" name="LHARTREE"> T  </i>
   <i type="int" name="IBSE">     0</i>
   <i type="logical" name="LTCTE"> F  </i>
   <i type="logical" name="LTETE"> F  </i>
   <i type="logical" name="LTRIPLET"> F  </i>
   <i type="logical" name="LFXCEPS"> F  </i>
   <i type="logical" name="LFXHEG"> F  </i>
   <i type="logical" name="L2ORDER"> F  </i>
   <i type="logical" name="LUSEW"> F  </i>
   <i name="ENCUTGW">     -2.00000000</i>
   <i name="ENCUTGWSOFT">     -2.00000000</i>
   <i name="ENCUTLF">     -1.00000000</i>
   <i type="int" name="LMAXMP2">    -1</i>
   <i name="SCISSOR">      0.00000000</i>
   <i type="int" name="NOMEGA">     0</i>
   <i type="int" name="NOMEGAR">     0</i>
   <i type="int" name="NBANDSGW">    -1</i>
   <i type="int" name="NBANDSO">    -1</i>
   <i type="int" name="NBANDSV">    -1</i>
   <i type="int" name="NELM">   300</i>
   <i type="int" name="DIM">     3</i>
   <i type="int" name="ANTIRES">     0</i>
   <i name="OMEGAMAX">    -30.00000000</i>
   <i name="OMEGAMIN">    -30.00000000</i>
   <i name="OMEGATL">   -200.00000000</i>
   <i type="int" name="OMEGAGRID">     0</i>
   <i name="CSHIFT">     -0.10000000</i>
   <i type="logical" name="SELFENERGY"> F  </i>
   <i type="logical" name="LSPECTRAL"> F  </i>
   <i type="logical" name="ODDONLYGW"> F  </i>
   <i type="logical" name="EVENONLYGW"> F  </i>
   <i type="int" name="NKREDLFX">     1</i>
   <i type="int" name="NKREDLFY">     1</i>
   <i type="int" name="NKREDLFZ">     1</i>
   <i type="int" name="MAXMEM">  1800</i>
   <i type="int" name="TELESCOPE">     0</i>
   <i type="int" name="TAUPAR">     1</i>
  </separator>
  <separator name="External order field" >
   <i name="OFIELD_KAPPA">      0.00000000</i>
   <v name="OFIELD_K">      0.00000000      0.00000000      0.00000000</v>
   <i name="OFIELD_Q6_NEAR">      0.00000000</i>
   <i name="OFIELD_Q6_FAR">      0.00000000</i>
   <i name="OFIELD_A">      0.00000000</i>
  </separator>
 </parameters>
 <atominfo>
  <atoms>      24 </atoms>
  <types>       3 </types>
  <array name="atoms" >
   <dimension dim="1">ion</dimension>
   <field type="string">element</field>
   <field type="int">atomtype</field>
   <set>
    <rc><c>Fe</c><c>   1</c></rc>
    <rc><c>Fe</c><c>   1</c></rc>
    <rc><c>Fe</c><c>   1</c></rc>
    <rc><c>Fe</c><c>   1</c></rc>
    <rc><c>Fe</c><c>   1</c></rc>
    <rc><c>Fe</c><c>   1</c></rc>
    <rc><c>Fe</c><c>   1</c></rc>
    <rc><c>Fe</c><c>   1</c></rc>
    <rc><c>O </c><c>   2</c></rc>
    <rc><c>O </c><c>   2</c></rc>
    <rc><c>F </c><c>   3</c></rc>
    <rc><c>F </c><c>   3</c></rc>
    <rc><c>F </c><c>   3</c></rc>
    <rc><c>F </c><c>   3</c></rc>
    <rc><c>F </c><c>   3</c></rc>
    <rc><c>F </c><c>   3</c></rc>
    <rc><c>F </c><c>   3</c></rc>
    <rc><c>F </c><c>   3</c></rc>
    <rc><c>F </c><c>   3</c></rc>
    <rc><c>F </c><c>   3</c></rc>
    <rc><c>F </c><c>   3</c></rc>
    <rc><c>F </c><c>   3</c></rc>
    <rc><c>F </c><c>   3</c></rc>
    <rc><c>F </c><c>   3</c></rc>
   </set>
  </array>
  <array name="atomtypes" >
   <dimension dim="1">type</dimension>
   <field type="int">atomspertype</field>
   <field type="string">element</field>
   <field>mass</field>
   <field>valence</field>
   <field type="string">pseudopotential</field>
   <set>
    <rc><c>   8</c><c>Fe</c><c>     55.84700000</c><c>      8.00000000</c><c>  PAW_PBE Fe 06Sep2000                  </c></rc>
    <rc><c>   2</c><c>O </c><c>     16.00000000</c><c>      6.00000000</c><c>  PAW_PBE O 08Apr2002                   </c></rc>
    <rc><c>  14</c><c>F </c><c>     18.99800000</c><c>      7.00000000</c><c>  PAW_PBE F 08Apr2002                   </c></rc>
   </set>
  </array>
 </atominfo>
 <structure name="initialpos" >
  <crystal>
   <varray name="basis" >
    <v>       5.73591900       0.00000000      -0.79026700 </v>
    <v>       0.00000000       4.78544200       0.00000000 </v>
    <v>       0.00000000       0.00000000      10.88396600 </v>
   </varray>
   <i name="volume">    298.75297805 </i>
   <varray name="rec_basis" >
    <v>       0.17433998       0.00000000       0.00000000 </v>
    <v>       0.00000000       0.20896711       0.00000000 </v>
    <v>       0.01265854       0.00000000       0.09187827 </v>
   </varray>
  </crystal>
  <varray name="positions" >
   <v>       0.24699400       0.24850600       0.74541500 </v>
   <v>       0.24699400       0.75149400       0.24623300 </v>
   <v>       0.51485700       0.24497600       0.49256300 </v>
   <v>       0.51485700       0.75502400       0.99879200 </v>
   <v>       0.75373900       0.23127500       0.26486200 </v>
   <v>       0.75373900       0.76872500       0.76486200 </v>
   <v>       0.99045900       0.24137200       0.99652900 </v>
   <v>       0.99045900       0.75862800       0.49753900 </v>
   <v>       0.77857200       0.05847800       0.41725200 </v>
   <v>       0.78533300       0.94152200       0.91725200 </v>
   <v>       0.01370000       0.05755600       0.18278600 </v>
   <v>       0.01370000       0.94244400       0.68278600 </v>
   <v>       0.22224900       0.44944100       0.57827600 </v>
   <v>       0.22718800       0.55055900       0.07080400 </v>
   <v>       0.27923300       0.05174700       0.92203700 </v>
   <v>       0.27923300       0.94659800       0.42203700 </v>
   <v>       0.48187500       0.45353000       0.31584000 </v>
   <v>       0.48187500       0.54647000       0.81584000 </v>
   <v>       0.52253600       0.03560000       0.67416600 </v>
   <v>       0.52253600       0.97252300       0.17416600 </v>
   <v>       0.72235300       0.43845700       0.09109400 </v>
   <v>       0.72235300       0.55698000       0.59109400 </v>
   <v>       0.96880300       0.45650500       0.81960400 </v>
   <v>       0.97343300       0.54349500       0.31960400 </v>
  </varray>
 </structure>
 <calculation>
  <scstep>
   <time name="diag">    0.88    1.77</time>
   <time name="diis">    2.05    4.11</time>
   <time name="orth">    0.18    0.31</time>
   <time name="total">    3.25    6.46</time>
   <energy>
    <i name="alphaZ">    634.09262729 </i>
    <i name="ewald"> -10607.91764775 </i>
    <i name="hartreedc">  -4394.27931245 </i>
    <i name="XCdc">    595.51344532 </i>
    <i name="pawpsdc">  12680.77512887 </i>
    <i name="pawaedc"> -12817.41364524 </i>
    <i name="eentropy">     -0.03314004 </i>
    <i name="bandstr">   1186.17925934 </i>
    <i name="atom">  14851.27451460 </i>
    <i name="e_fr_energy">   2128.19122993 </i>
    <i name="e_wo_entrp">   2128.22436997 </i>
    <i name="e_0_energy">   2128.20227661 </i>
   </energy>
  </scstep>
  <scstep>
   <time name="diag">    0.88    1.76</time>
   <time name="diis">    1.94    3.82</time>
   <time name="orth">    0.19    0.38</time>
   <time name="total">    3.02    5.97</time>
   <energy>
    <i name="e_fr_energy">    663.19244790 </i>
    <i name="e_wo_entrp">    663.20834662 </i>
    <i name="e_0_energy">    663.19774747 </i>
   </energy>
  </scstep>
  <scstep>
   <time name="diag">    0.88    1.76</time>
   <time name="diis">    1.96    3.92</time>
   <time name="orth">    0.19    0.38</time>
   <time name="total">    3.03    6.06</time>
   <energy>
    <i name="e_fr_energy">    226.20303332 </i>
    <i name="e_wo_entrp">    226.22279722 </i>
    <i name="e_0_energy">    226.20962129 </i>
   </energy>
  </scstep>
  <scstep>
   <time name="diag">    0.85    1.24</time>
   <time name="diis">    1.91    3.78</time>
   <time name="orth">    0.19    0.38</time>
   <time name="total">    2.95    5.41</time>
   <energy>
    <i name="e_fr_energy">     42.25402497 </i>
    <i name="e_wo_entrp">     42.25716744 </i>
    <i name="e_0_energy">     42.25507246 </i>
   </energy>
  </scstep>
  <scstep>
   <time name="diag">    0.86    1.72</time>
   <time name="diis">    1.90    3.81</time>
   <time name="orth">    0.18    0.36</time>
   <time name="total">    2.95    5.90</time>
   <energy>
    <i name="e_fr_energy">    -62.38013837 </i>
    <i name="e_wo_entrp">    -62.40701539 </i>
    <i name="e_0_energy">    -62.38909737 </i>
   </energy>
  </scstep>
  <scstep>
   <time name="diag">    0.86    1.26</time>
   <time name="diis">    1.90    3.75</time>
   <time name="orth">    0.18    0.36</time>
   <time name="total">    2.95    5.37</time>
   <energy>
    <i name="e_fr_energy">   -110.26926973 </i>
    <i name="e_wo_entrp">   -110.32136439 </i>
    <i name="e_0_energy">   -110.28663461 </i>
   </energy>
  </scstep>
  <scstep>
   <time name="diag">    0.86    1.72</time>
   <time name="diis">    1.81    3.63</time>
   <time name="orth">    0.18    0.37</time>
   <time name="total">    2.86    5.73</time>
   <energy>
    <i name="e_fr_energy">   -135.05816421 </i>
    <i name="e_wo_entrp">   -135.17475663 </i>
    <i name="e_0_energy">   -135.09702835 </i>
   </energy>
  </scstep>
  <scstep>
   <time name="diag">    0.85    1.71</time>
   <time name="diis">    1.77    3.54</time>
   <time name="orth">    0.17    0.34</time>
   <time name="total">    2.80    5.61</time>
   <energy>
    <i name="e_fr_energy">   -145.00146651 </i>
    <i name="e_wo_entrp">   -145.14552288 </i>
    <i name="e_0_energy">   -145.04948530 </i>
   </energy>
  </scstep>
  <scstep>
   <time name="diag">    0.85    1.69</time>
   <time name="diis">    5.05   10.11</time>
   <time name="orth">    0.17    0.34</time>
   <time name="total">    6.08   12.15</time>
   <energy>
    <i name="e_fr_energy">   -154.92468993 </i>
    <i name="e_wo_entrp">   -155.09556162 </i>
    <i name="e_0_energy">   -154.98164716 </i>
   </energy>
  </scstep>
  <scstep>
   <time name="diag">    0.84    1.69</time>
   <time name="diis">    5.14    8.87</time>
   <time name="orth">    0.18    0.36</time>
   <time name="total">    6.16   10.92</time>
   <energy>
    <i name="e_fr_energy">   -155.13164177 </i>
    <i name="e_wo_entrp">   -155.29113855 </i>
    <i name="e_0_energy">   -155.18480736 </i>
   </energy>
  </scstep>
  <scstep>
   <time name="diag">    0.86    1.71</time>
   <time name="diis">    4.94    8.81</time>
   <time name="orth">    0.19    0.19</time>
   <time name="total">    5.99   10.71</time>
   <energy>
    <i name="e_fr_energy">   -155.32598537 </i>
    <i name="e_wo_entrp">   -155.48349438 </i>
    <i name="e_0_energy">   -155.37848838 </i>
   </energy>
  </scstep>
  <scstep>
   <time name="diag">    0.85    0.85</time>
   <time name="diis">    4.04    4.04</time>
   <time name="orth">    0.18    0.18</time>
   <time name="total">    5.43    5.43</time>
   <energy>
    <i name="e_fr_energy">   -155.41552052 </i>
    <i name="e_wo_entrp">   -155.57376451 </i>
    <i name="e_0_energy">   -155.46826852 </i>
   </energy>
  </scstep>
  <scstep>
   <time name="diag">    0.85    0.85</time>
   <time name="diis">    4.10    7.77</time>
   <time name="orth">    0.18    0.36</time>
   <time name="total">    5.61    9.82</time>
   <energy>
    <i name="e_fr_energy">   -146.68130732 </i>
    <i name="e_wo_entrp">   -146.71429206 </i>
    <i name="e_0_energy">   -146.69230224 </i>
   </energy>
  </scstep>
  <scstep>
   <time name="diag">    0.86    1.73</time>
   <time name="diis">    3.57    7.00</time>
   <time name="orth">    0.19    0.37</time>
   <time name="total">    5.10   10.05</time>
   <energy>
    <i name="e_fr_energy">   -183.59867106 </i>
    <i name="e_wo_entrp">   -183.61515955 </i>
    <i name="e_0_energy">   -183.60416722 </i>
   </energy>
  </scstep>
  <scstep>
   <time name="diag">    0.87    1.74</time>
   <time name="diis">    4.09    8.20</time>
   <time name="orth">    0.18    0.37</time>
   <time name="total">    5.63   11.27</time>
   <energy>
    <i name="e_fr_energy">   -161.46715178 </i>
    <i name="e_wo_entrp">   -161.26196933 </i>
    <i name="e_0_energy">   -161.39875763 </i>
   </energy>
  </scstep>
  <scstep>
   <time name="diag">    0.86    1.60</time>
   <time name="diis">    4.10    8.20</time>
   <time name="orth">    0.19    0.39</time>
   <time name="total">    5.64   11.14</time>
   <energy>
    <i name="e_fr_energy">   -142.29999051 </i>
    <i name="e_wo_entrp">   -142.22085105 </i>
    <i name="e_0_energy">   -142.27361069 </i>
   </energy>
  </scstep>
  <scstep>
   <time name="diag">    0.88    1.76</time>
   <time name="diis">    3.98    7.96</time>
   <time name="orth">    0.19    0.38</time>
   <time name="total">    5.53   10.95</time>
   <energy>
    <i name="e_fr_energy">   -147.87769396 </i>
    <i name="e_wo_entrp">   -147.82512404 </i>
    <i name="e_0_energy">   -147.86017065 </i>
   </energy>
  </scstep>
  <scstep>
   <time name="diag">    0.84    1.56</time>
   <time name="diis">    3.96    7.92</time>
   <time name="orth">    0.18    0.38</time>
   <time name="total">    5.46   10.80</time>
   <energy>
    <i name="e_fr_energy">   -172.67636854 </i>
    <i name="e_wo_entrp">   -172.67174799 </i>
    <i name="e_0_energy">   -172.67482836 </i>
   </energy>
  </scstep>
  <scstep>
   <time name="diag">    0.87    1.74</time>
   <time name="diis">    4.22    8.45</time>
   <time name="orth">    0.19    0.37</time>
   <time name="total">    5.76   11.51</time>
   <energy>
    <i name="e_fr_energy">   -143.81178873 </i>
    <i name="e_wo_entrp">   -143.73111894 </i>
    <i name="e_0_energy">   -143.78489880 </i>
   </energy>
  </scstep>
  <scstep>
   <time name="diag">    0.86    1.73</time>
   <time name="diis">    3.87    7.74</time>
   <time name="orth">    0.18    0.37</time>
   <time name="total">    5.39   10.79</time>
   <energy>
    <i name="e_fr_energy">   -139.70433735 </i>
    <i name="e_wo_entrp">   -139.70687269 </i>
    <i name="e_0_energy">   -139.70518246 </i>
   </energy>
  </scstep>
  <scstep>
   <time name="diag">    0.86    1.73</time>
   <time name="diis">    4.00    7.80</time>
   <time name="orth">    0.19    0.38</time>
   <time name="total">    5.51   10.84</time>
   <energy>
    <i name="e_fr_energy">   -135.32685206 </i>
    <i name="e_wo_entrp">   -135.30378730 </i>
    <i name="e_0_energy">   -135.31916380 </i>
   </energy>
  </scstep>
  <scstep>
   <time name="diag">    0.85    1.59</time>
   <time name="diis">    3.70    7.07</time>
   <time name="orth">    0.19    0.38</time>
   <time name="total">    5.22    9.98</time>
   <energy>
    <i name="e_fr_energy">   -134.15562010 </i>
    <i name="e_wo_entrp">   -134.06403496 </i>
    <i name="e_0_energy">   -134.12509172 </i>
   </energy>
  </scstep>
  <scstep>
   <time name="diag">    0.86    1.60</time>
   <time name="diis">    4.33    8.67</time>
   <time name="orth">    0.19    0.39</time>
   <time name="total">    5.88   11.63</time>
   <energy>
    <i name="e_fr_energy">   -135.10007566 </i>
    <i name="e_wo_entrp">   -135.10331086 </i>
    <i name="e_0_energy">   -135.10115406 </i>
   </energy>
  </scstep>
  <scstep>
   <time name="diag">    0.90    1.79</time>
   <time name="diis">    4.02    7.21</time>
   <time name="orth">    0.19    0.40</time>
   <time name="total">    5.61   10.37</time>
   <energy>
    <i name="e_fr_energy">   -132.64912252 </i>
    <i name="e_wo_entrp">   -132.71995243 </i>
    <i name="e_0_energy">   -132.67273249 </i>
   </energy>
  </scstep>
  <scstep>
   <time name="diag">    0.88    1.76</time>
   <time name="diis">    4.33    8.29</time>
   <time name="orth">    0.19    0.38</time>
   <time name="total">    5.89   11.42</time>
   <energy>
    <i name="e_fr_energy">   -132.19491886 </i>
    <i name="e_wo_entrp">   -132.10633836 </i>
    <i name="e_0_energy">   -132.16539203 </i>
   </energy>
  </scstep>
  <scstep>
   <time name="diag">    0.88    1.76</time>
   <time name="diis">    3.68    7.35</time>
   <time name="orth">    0.18    0.36</time>
   <time name="total">    5.22   10.44</time>
   <energy>
    <i name="e_fr_energy">   -132.39337940 </i>
    <i name="e_wo_entrp">   -132.52256676 </i>
    <i name="e_0_energy">   -132.43644186 </i>
   </energy>
  </scstep>
  <scstep>
   <time name="diag">    0.86    1.52</time>
   <time name="diis">    3.78    7.43</time>
   <time name="orth">    0.18    0.37</time>
   <time name="total">    5.30   10.27</time>
   <energy>
    <i name="e_fr_energy">   -132.02302928 </i>
    <i name="e_wo_entrp">   -132.18105678 </i>
    <i name="e_0_energy">   -132.07570512 </i>
   </energy>
  </scstep>
  <scstep>
   <time name="diag">    0.87    1.55</time>
   <time name="diis">    4.07    8.13</time>
   <time name="orth">    0.18    0.35</time>
   <time name="total">    5.59   10.78</time>
   <energy>
    <i name="e_fr_energy">   -132.00400345 </i>
    <i name="e_wo_entrp">   -132.16491346 </i>
    <i name="e_0_energy">   -132.05764012 </i>
   </energy>
  </scstep>
  <scstep>
   <time name="diag">    0.86    1.52</time>
   <time name="diis">    4.03    8.06</time>
   <time name="orth">    0.18    0.36</time>
   <time name="total">    5.55   10.79</time>
   <energy>
    <i name="e_fr_energy">   -132.19951313 </i>
    <i name="e_wo_entrp">   -132.33840581 </i>
    <i name="e_0_energy">   -132.24581069 </i>
   </energy>
  </scstep>
  <scstep>
   <time name="diag">    0.85    1.72</time>
   <time name="diis">    4.14    8.27</time>
   <time name="orth">    0.19    0.38</time>
   <time name="total">    5.66   11.33</time>
   <energy>
    <i name="e_fr_energy">   -132.20670263 </i>
    <i name="e_wo_entrp">   -132.35874682 </i>
    <i name="e_0_energy">   -132.25738403 </i>
   </energy>
  </scstep>
  <scstep>
   <time name="diag">    0.87    1.74</time>
   <time name="diis">    4.13    8.25</time>
   <time name="orth">    0.19    0.37</time>
   <time name="total">    5.67   11.33</time>
   <energy>
    <i name="e_fr_energy">   -132.17846281 </i>
    <i name="e_wo_entrp">   -132.32006873 </i>
    <i name="e_0_energy">   -132.22566479 </i>
   </energy>
  </scstep>
  <scstep>
   <time name="diag">    0.86    1.72</time>
   <time name="diis">    3.69    7.39</time>
   <time name="orth">    0.19    0.37</time>
   <time name="total">    5.22   10.45</time>
   <energy>
    <i name="e_fr_energy">   -132.15726432 </i>
    <i name="e_wo_entrp">   -132.31397434 </i>
    <i name="e_0_energy">   -132.20950099 </i>
   </energy>
  </scstep>
  <scstep>
   <time name="diag">    0.86    1.73</time>
   <time name="diis">    3.42    6.84</time>
   <time name="orth">    0.18    0.36</time>
   <time name="total">    4.95    9.91</time>
   <energy>
    <i name="e_fr_energy">   -132.13573950 </i>
    <i name="e_wo_entrp">   -132.28667391 </i>
    <i name="e_0_energy">   -132.18605097 </i>
   </energy>
  </scstep>
  <scstep>
   <time name="diag">    0.87    1.73</time>
   <time name="diis">    3.61    7.23</time>
   <time name="orth">    0.18    0.37</time>
   <time name="total">    5.15   10.30</time>
   <energy>
    <i name="e_fr_energy">   -132.11048243 </i>
    <i name="e_wo_entrp">   -132.25370554 </i>
    <i name="e_0_energy">   -132.15822347 </i>
   </energy>
  </scstep>
  <scstep>
   <time name="diag">    0.85    1.71</time>
   <time name="diis">    3.37    6.68</time>
   <time name="orth">    0.18    0.36</time>
   <time name="total">    4.89    9.73</time>
   <energy>
    <i name="e_fr_energy">   -132.09750587 </i>
    <i name="e_wo_entrp">   -132.23525213 </i>
    <i name="e_0_energy">   -132.14342129 </i>
   </energy>
  </scstep>
  <scstep>
   <time name="diag">    0.85    1.70</time>
   <time name="diis">    3.52    7.00</time>
   <time name="orth">    0.19    0.38</time>
   <time name="total">    5.06   10.00</time>
   <energy>
    <i name="e_fr_energy">   -132.08586176 </i>
    <i name="e_wo_entrp">   -132.20379754 </i>
    <i name="e_0_energy">   -132.12517369 </i>
   </energy>
  </scstep>
  <scstep>
   <time name="diag">    0.85    1.50</time>
   <time name="diis">    3.28    6.58</time>
   <time name="orth">    0.19    0.38</time>
   <time name="total">    4.81    9.39</time>
   <energy>
    <i name="e_fr_energy">   -132.08532020 </i>
    <i name="e_wo_entrp">   -132.20882030 </i>
    <i name="e_0_energy">   -132.12648690 </i>
   </energy>
  </scstep>
  <scstep>
   <time name="diag">    0.89    1.77</time>
   <time name="diis">    2.72    4.75</time>
   <time name="orth">    0.19    0.40</time>
   <time name="total">    4.30    7.91</time>
   <energy>
    <i name="e_fr_energy">   -132.08498190 </i>
    <i name="e_wo_entrp">   -132.20491855 </i>
    <i name="e_0_energy">   -132.12496078 </i>
   </energy>
  </scstep>
  <scstep>
   <time name="diag">    0.89    1.57</time>
   <time name="diis">    2.32    4.65</time>
   <time name="orth">    0.19    0.40</time>
   <time name="total">    3.90    7.60</time>
   <energy>
    <i name="e_fr_energy">   -132.08547381 </i>
    <i name="e_wo_entrp">   -132.21047324 </i>
    <i name="e_0_energy">   -132.12714029 </i>
   </energy>
  </scstep>
  <scstep>
   <time name="diag">    0.88    1.52</time>
   <time name="diis">    2.57    5.15</time>
   <time name="orth">    0.20    0.40</time>
   <time name="total">    4.16    8.08</time>
   <energy>
    <i name="e_fr_energy">   -132.08578219 </i>
    <i name="e_wo_entrp">   -132.20434627 </i>
    <i name="e_0_energy">   -132.12530355 </i>
   </energy>
  </scstep>
  <scstep>
   <time name="diag">    0.89    1.77</time>
   <time name="diis">    2.11    4.10</time>
   <time name="orth">    0.19    0.37</time>
   <time name="total">    3.69    7.25</time>
   <energy>
    <i name="e_fr_energy">   -132.08599516 </i>
    <i name="e_wo_entrp">   -132.20695663 </i>
    <i name="e_0_energy">   -132.12631565 </i>
   </energy>
  </scstep>
  <scstep>
   <time name="diag">    0.88    1.76</time>
   <time name="diis">    2.09    4.19</time>
   <time name="orth">    0.20    0.40</time>
   <time name="total">    3.30    6.59</time>
   <energy>
    <i name="alphaZ">    634.09262729 </i>
    <i name="ewald"> -10607.91764775 </i>
    <i name="hartreedc">  -4470.36708652 </i>
    <i name="XCdc">    604.94681264 </i>
    <i name="pawpsdc">  14888.33278305 </i>
    <i name="pawaedc"> -15029.53855972 </i>
    <i name="eentropy">      0.11705301 </i>
    <i name="bandstr">  -1003.02651621 </i>
    <i name="atom">  14851.27451460 </i>
    <i name="e_fr_energy">   -132.08601961 </i>
    <i name="e_wo_entrp">   -132.20307262 </i>
    <i name="e_0_energy">   -132.12503728 </i>
   </energy>
  </scstep>
  <structure>
   <crystal>
    <varray name="basis" >
     <v>       5.73591900       0.00000000      -0.79026700 </v>
     <v>       0.00000000       4.78544200       0.00000000 </v>
     <v>       0.00000000       0.00000000      10.88396600 </v>
    </varray>
    <i name="volume">    298.75297805 </i>
    <varray name="rec_basis" >
     <v>       0.17433998       0.00000000       0.00000000 </v>
     <v>       0.00000000       0.20896711       0.00000000 </v>
     <v>       0.01265854       0.00000000       0.09187827 </v>
    </varray>
   </crystal>
   <varray name="positions" >
    <v>       0.24699400       0.24850600       0.74541500 </v>
    <v>       0.24699400       0.75149400       0.24623300 </v>
    <v>       0.51485700       0.24497600       0.49256300 </v>
    <v>       0.51485700       0.75502400       0.99879200 </v>
    <v>       0.75373900       0.23127500       0.26486200 </v>
    <v>       0.75373900       0.76872500       0.76486200 </v>
    <v>       0.99045900       0.24137200       0.99652900 </v>
    <v>       0.99045900       0.75862800       0.49753900 </v>
    <v>       0.77857200       0.05847800       0.41725200 </v>
    <v>       0.78533300       0.94152200       0.91725200 </v>
    <v>       0.01370000       0.05755600       0.18278600 </v>
    <v>       0.01370000       0.94244400       0.68278600 </v>
    <v>       0.22224900       0.44944100       0.57827600 </v>
    <v>       0.22718800       0.55055900       0.07080400 </v>
    <v>       0.27923300       0.05174700       0.92203700 </v>
    <v>       0.27923300       0.94659800       0.42203700 </v>
    <v>       0.48187500       0.45353000       0.31584000 </v>
    <v>       0.48187500       0.54647000       0.81584000 </v>
    <v>       0.52253600       0.03560000       0.67416600 </v>
    <v>       0.52253600       0.97252300       0.17416600 </v>
    <v>       0.72235300       0.43845700       0.09109400 </v>
    <v>       0.72235300       0.55698000       0.59109400 </v>
    <v>       0.96880300       0.45650500       0.81960400 </v>
    <v>       0.97343300       0.54349500       0.31960400 </v>
   </varray>
  </structure>
  <varray name="forces" >
   <v>       0.15699185      -0.00956523       0.04591230 </v>
   <v>       0.10791117       0.06426808      -0.08401606 </v>
   <v>       1.09543588      -0.76135813      -0.17194960 </v>
   <v>       0.96800261       0.62387605      -0.68715042 </v>
   <v>       0.23969874      -0.15121971      -0.03271945 </v>
   <v>       0.13023977       0.22157719       0.02677002 </v>
   <v>      -0.91288121      -1.27131790      -0.62056490 </v>
   <v>      -1.06073857       1.17287359      -0.27863573 </v>
   <v>      -0.46977305       0.00089310       0.84205574 </v>
   <v>      -0.63803532       0.08766244       1.07268871 </v>
   <v>       0.36300640      -0.36464883      -0.18559049 </v>
   <v>       0.33465678       0.33765269      -0.22804734 </v>
   <v>      -0.01197676      -0.18444792      -0.05452532 </v>
   <v>      -0.04212242       0.28868645       0.38777108 </v>
   <v>      -0.16531232       0.27558115      -0.23200689 </v>
   <v>      -0.18412810      -0.25408781      -0.29368970 </v>
   <v>      -0.23123386       0.00499328       0.61385005 </v>
   <v>      -0.19565088       0.04767263       0.67656570 </v>
   <v>      -0.34424504       0.49062456       0.01395438 </v>
   <v>      -0.43598417      -0.71114208      -0.00286505 </v>
   <v>       0.19718129       0.17982905      -0.81181373 </v>
   <v>       0.17826297      -0.03617601      -0.89206063 </v>
   <v>       0.51080225      -0.46174784       0.43108830 </v>
   <v>       0.40989199       0.40952120       0.46497904 </v>
  </varray>
  <varray name="stress" >
   <v>    -259.61450183       0.28907964      15.89222370 </v>
   <v>       0.28908041    -251.68922304      -0.14998385 </v>
   <v>      15.89222384      -0.14998337    -291.67486484 </v>
  </varray>
  <energy>
   <i name="e_fr_energy">   -132.08601961 </i>
   <i name="e_wo_entrp">   -132.12503728 </i>
   <i name="e_0_energy">      0.11705301 </i>
  </energy>
  <time name="totalsc">  210.51  404.87</time>
  <eigenvalues>
   <array>
    <dimension dim="1">band</dimension>
    <dimension dim="2">kpoint</dimension>
    <dimension dim="3">spin</dimension>
    <field>eigene</field>
    <field>occ</field>
    <set>
     <set comment="spin 1">
      <set comment="kpoint 1">
       <r>  -22.6915    1.0000 </r>
       <r>  -22.5846    1.0000 </r>
       <r>  -22.3796    1.0000 </r>
       <r>  -22.3454    1.0000 </r>
       <r>  -22.2714    1.0000 </r>
       <r>  -22.2518    1.0000 </r>
       <r>  -22.2295    1.0000 </r>
       <r>  -22.1966    1.0000 </r>
       <r>  -22.1422    1.0000 </r>
       <r>  -22.0922    1.0000 </r>
       <r>  -21.9856    1.0000 </r>
       <r>  -21.9813    1.0000 </r>
       <r>  -21.8826    1.0000 </r>
       <r>  -21.8172    1.0000 </r>
       <r>  -16.8347    1.0000 </r>
       <r>  -16.7315    1.0000 </r>
       <r>   -6.1379    1.0000 </r>
       <r>   -5.7864    1.0000 </r>
       <r>   -5.3657    1.0000 </r>
       <r>   -5.2311    1.0000 </r>
       <r>   -5.1948    1.0000 </r>
       <r>   -5.0731    1.0000 </r>
       <r>   -4.9924    1.0000 </r>
       <r>   -4.9502    1.0000 </r>
       <r>   -4.8520    1.0000 </r>
       <r>   -4.8342    1.0000 </r>
       <r>   -4.6943    1.0000 </r>
       <r>   -4.5728    1.0000 </r>
       <r>   -4.5666    1.0000 </r>
       <r>   -4.5497    1.0000 </r>
       <r>   -4.4219    1.0000 </r>
       <r>   -4.4168    1.0000 </r>
       <r>   -4.3806    1.0000 </r>
       <r>   -4.3019    1.0000 </r>
       <r>   -4.2992    1.0000 </r>
       <r>   -4.2422    1.0000 </r>
       <r>   -4.1964    1.0000 </r>
       <r>   -4.1646    1.0000 </r>
       <r>   -4.0684    1.0000 </r>
       <r>   -4.0064    1.0000 </r>
       <r>   -3.9859    1.0000 </r>
       <r>   -3.9537    1.0000 </r>
       <r>   -3.8994    1.0000 </r>
       <r>   -3.8758    1.0000 </r>
       <r>   -3.7210    1.0000 </r>
       <r>   -3.6282    1.0000 </r>
       <r>   -3.4574    1.0000 </r>
       <r>   -3.4463    1.0000 </r>
       <r>   -3.3614    1.0000 </r>
       <r>   -3.2726    1.0000 </r>
       <r>   -3.0792    1.0000 </r>
       <r>   -3.0466    1.0000 </r>
       <r>   -2.9520    1.0000 </r>
       <r>   -2.9401    1.0000 </r>
       <r>   -2.7931    1.0000 </r>
       <r>   -2.7483    1.0000 </r>
       <r>   -2.7322    1.0000 </r>
       <r>   -2.6771    1.0000 </r>
       <r>   -2.5375    1.0000 </r>
       <r>   -2.4665    1.0000 </r>
       <r>   -2.3734    1.0000 </r>
       <r>   -2.3036    1.0000 </r>
       <r>   -1.6348    1.0000 </r>
       <r>   -1.5384    1.0000 </r>
       <r>    0.8948    1.0000 </r>
       <r>    0.9234    1.0000 </r>
       <r>    0.9615    1.0000 </r>
       <r>    0.9825    1.0000 </r>
       <r>    1.0243    1.0000 </r>
       <r>    1.0386    1.0000 </r>
       <r>    1.0653    1.0001 </r>
       <r>    1.1053    1.0003 </r>
       <r>    1.1309    1.0005 </r>
       <r>    1.1424    1.0007 </r>
       <r>    1.1875    1.0019 </r>
       <r>    1.2206    1.0036 </r>
       <r>    1.2764    1.0095 </r>
       <r>    1.3130    1.0160 </r>
       <r>    1.3217    1.0178 </r>
       <r>    1.3853    1.0318 </r>
       <r>    1.3913    1.0328 </r>
       <r>    1.4088    1.0350 </r>
       <r>    1.4563    1.0292 </r>
       <r>    1.4983    0.9983 </r>
       <r>    1.5428    0.9253 </r>
       <r>    1.5775    0.8345 </r>
       <r>    1.5933    0.7836 </r>
       <r>    1.6674    0.4905 </r>
       <r>    1.6730    0.4668 </r>
       <r>    1.8184    0.0191 </r>
       <r>    1.8774   -0.0304 </r>
       <r>    1.9194   -0.0352 </r>
       <r>    1.9551   -0.0298 </r>
       <r>    2.0062   -0.0183 </r>
       <r>    2.0805   -0.0062 </r>
       <r>    2.1121   -0.0035 </r>
       <r>    2.3898   -0.0000 </r>
       <r>    2.3995   -0.0000 </r>
       <r>    2.7015   -0.0000 </r>
       <r>    2.8129   -0.0000 </r>
       <r>    2.8866   -0.0000 </r>
       <r>    2.8932   -0.0000 </r>
       <r>    3.0396   -0.0000 </r>
       <r>    3.1895   -0.0000 </r>
      </set>
      <set comment="kpoint 2">
       <r>  -22.5428    1.0000 </r>
       <r>  -22.5301    1.0000 </r>
       <r>  -22.4965    1.0000 </r>
       <r>  -22.3628    1.0000 </r>
       <r>  -22.3236    1.0000 </r>
       <r>  -22.2766    1.0000 </r>
       <r>  -22.2411    1.0000 </r>
       <r>  -22.2002    1.0000 </r>
       <r>  -22.1312    1.0000 </r>
       <r>  -22.0829    1.0000 </r>
       <r>  -21.9719    1.0000 </r>
       <r>  -21.9695    1.0000 </r>
       <r>  -21.8921    1.0000 </r>
       <r>  -21.8209    1.0000 </r>
       <r>  -16.8390    1.0000 </r>
       <r>  -16.7362    1.0000 </r>
       <r>   -5.5992    1.0000 </r>
       <r>   -5.5610    1.0000 </r>
       <r>   -5.5192    1.0000 </r>
       <r>   -5.2969    1.0000 </r>
       <r>   -5.1525    1.0000 </r>
       <r>   -5.0693    1.0000 </r>
       <r>   -5.0131    1.0000 </r>
       <r>   -4.9155    1.0000 </r>
       <r>   -4.8373    1.0000 </r>
       <r>   -4.7515    1.0000 </r>
       <r>   -4.6492    1.0000 </r>
       <r>   -4.5805    1.0000 </r>
       <r>   -4.5162    1.0000 </r>
       <r>   -4.4857    1.0000 </r>
       <r>   -4.4051    1.0000 </r>
       <r>   -4.3696    1.0000 </r>
       <r>   -4.3456    1.0000 </r>
       <r>   -4.3320    1.0000 </r>
       <r>   -4.2777    1.0000 </r>
       <r>   -4.2569    1.0000 </r>
       <r>   -4.1560    1.0000 </r>
       <r>   -4.0662    1.0000 </r>
       <r>   -4.0283    1.0000 </r>
       <r>   -3.9711    1.0000 </r>
       <r>   -3.9559    1.0000 </r>
       <r>   -3.8827    1.0000 </r>
       <r>   -3.8446    1.0000 </r>
       <r>   -3.8068    1.0000 </r>
       <r>   -3.7455    1.0000 </r>
       <r>   -3.7064    1.0000 </r>
       <r>   -3.6577    1.0000 </r>
       <r>   -3.5844    1.0000 </r>
       <r>   -3.3713    1.0000 </r>
       <r>   -3.3361    1.0000 </r>
       <r>   -3.1684    1.0000 </r>
       <r>   -3.1125    1.0000 </r>
       <r>   -3.0675    1.0000 </r>
       <r>   -2.9684    1.0000 </r>
       <r>   -2.9301    1.0000 </r>
       <r>   -2.8509    1.0000 </r>
       <r>   -2.8009    1.0000 </r>
       <r>   -2.7654    1.0000 </r>
       <r>   -2.7488    1.0000 </r>
       <r>   -2.6272    1.0000 </r>
       <r>   -2.6019    1.0000 </r>
       <r>   -2.5554    1.0000 </r>
       <r>   -1.7522    1.0000 </r>
       <r>   -1.6626    1.0000 </r>
       <r>    0.9132    1.0000 </r>
       <r>    0.9884    1.0000 </r>
       <r>    1.0602    1.0001 </r>
       <r>    1.0794    1.0001 </r>
       <r>    1.1175    1.0004 </r>
       <r>    1.1553    1.0009 </r>
       <r>    1.2001    1.0024 </r>
       <r>    1.2161    1.0033 </r>
       <r>    1.2267    1.0041 </r>
       <r>    1.2358    1.0048 </r>
       <r>    1.2793    1.0100 </r>
       <r>    1.2877    1.0113 </r>
       <r>    1.3092    1.0152 </r>
       <r>    1.3318    1.0200 </r>
       <r>    1.3353    1.0208 </r>
       <r>    1.3779    1.0304 </r>
       <r>    1.4164    1.0354 </r>
       <r>    1.4223    1.0354 </r>
       <r>    1.4395    1.0338 </r>
       <r>    1.4457    1.0325 </r>
       <r>    1.5365    0.9386 </r>
       <r>    1.5935    0.7830 </r>
       <r>    1.7505    0.1729 </r>
       <r>    1.7638    0.1338 </r>
       <r>    1.8455   -0.0116 </r>
       <r>    1.8781   -0.0306 </r>
       <r>    1.8949   -0.0345 </r>
       <r>    1.9764   -0.0251 </r>
       <r>    1.9931   -0.0213 </r>
       <r>    2.1227   -0.0028 </r>
       <r>    2.1410   -0.0020 </r>
       <r>    2.2034   -0.0005 </r>
       <r>    2.2769   -0.0001 </r>
       <r>    2.3147   -0.0000 </r>
       <r>    2.3839   -0.0000 </r>
       <r>    2.4714   -0.0000 </r>
       <r>    2.5335   -0.0000 </r>
       <r>    2.6018   -0.0000 </r>
       <r>    2.8855   -0.0000 </r>
       <r>    3.0348   -0.0000 </r>
      </set>
      <set comment="kpoint 3">
       <r>  -22.5065    1.0000 </r>
       <r>  -22.4681    1.0000 </r>
       <r>  -22.4379    1.0000 </r>
       <r>  -22.3661    1.0000 </r>
       <r>  -22.3225    1.0000 </r>
       <r>  -22.3020    1.0000 </r>
       <r>  -22.2288    1.0000 </r>
       <r>  -22.1802    1.0000 </r>
       <r>  -22.1725    1.0000 </r>
       <r>  -22.1116    1.0000 </r>
       <r>  -22.0411    1.0000 </r>
       <r>  -22.0023    1.0000 </r>
       <r>  -21.8753    1.0000 </r>
       <r>  -21.8169    1.0000 </r>
       <r>  -16.8386    1.0000 </r>
       <r>  -16.7362    1.0000 </r>
       <r>   -5.6830    1.0000 </r>
       <r>   -5.6403    1.0000 </r>
       <r>   -5.5159    1.0000 </r>
       <r>   -5.4809    1.0000 </r>
       <r>   -5.3672    1.0000 </r>
       <r>   -5.3425    1.0000 </r>
       <r>   -5.2870    1.0000 </r>
       <r>   -5.2103    1.0000 </r>
       <r>   -4.9128    1.0000 </r>
       <r>   -4.8956    1.0000 </r>
       <r>   -4.7707    1.0000 </r>
       <r>   -4.7250    1.0000 </r>
       <r>   -4.6192    1.0000 </r>
       <r>   -4.5901    1.0000 </r>
       <r>   -4.4785    1.0000 </r>
       <r>   -4.3548    1.0000 </r>
       <r>   -4.2540    1.0000 </r>
       <r>   -4.2424    1.0000 </r>
       <r>   -4.1625    1.0000 </r>
       <r>   -4.1445    1.0000 </r>
       <r>   -4.0698    1.0000 </r>
       <r>   -4.0167    1.0000 </r>
       <r>   -3.9675    1.0000 </r>
       <r>   -3.9027    1.0000 </r>
       <r>   -3.8637    1.0000 </r>
       <r>   -3.8107    1.0000 </r>
       <r>   -3.7516    1.0000 </r>
       <r>   -3.7163    1.0000 </r>
       <r>   -3.6650    1.0000 </r>
       <r>   -3.5310    1.0000 </r>
       <r>   -3.4598    1.0000 </r>
       <r>   -3.3401    1.0000 </r>
       <r>   -3.3240    1.0000 </r>
       <r>   -3.2183    1.0000 </r>
       <r>   -3.1388    1.0000 </r>
       <r>   -3.0964    1.0000 </r>
       <r>   -2.9736    1.0000 </r>
       <r>   -2.9134    1.0000 </r>
       <r>   -2.8673    1.0000 </r>
       <r>   -2.8395    1.0000 </r>
       <r>   -2.8006    1.0000 </r>
       <r>   -2.7807    1.0000 </r>
       <r>   -2.6392    1.0000 </r>
       <r>   -2.5621    1.0000 </r>
       <r>   -2.4465    1.0000 </r>
       <r>   -2.3783    1.0000 </r>
       <r>   -1.7176    1.0000 </r>
       <r>   -1.6289    1.0000 </r>
       <r>    0.9710    1.0000 </r>
       <r>    0.9948    1.0000 </r>
       <r>    1.0324    1.0000 </r>
       <r>    1.0630    1.0001 </r>
       <r>    1.0852    1.0002 </r>
       <r>    1.1342    1.0006 </r>
       <r>    1.1723    1.0014 </r>
       <r>    1.2024    1.0026 </r>
       <r>    1.2225    1.0038 </r>
       <r>    1.2555    1.0068 </r>
       <r>    1.2796    1.0100 </r>
       <r>    1.3045    1.0143 </r>
       <r>    1.3114    1.0156 </r>
       <r>    1.3532    1.0249 </r>
       <r>    1.3616    1.0269 </r>
       <r>    1.3778    1.0303 </r>
       <r>    1.3965    1.0336 </r>
       <r>    1.4175    1.0354 </r>
       <r>    1.4247    1.0354 </r>
       <r>    1.4728    1.0207 </r>
       <r>    1.4850    1.0116 </r>
       <r>    1.4941    1.0029 </r>
       <r>    1.6848    0.4175 </r>
       <r>    1.7244    0.2612 </r>
       <r>    1.8337   -0.0001 </r>
       <r>    1.8518   -0.0167 </r>
       <r>    1.9684   -0.0269 </r>
       <r>    1.9742   -0.0256 </r>
       <r>    1.9863   -0.0228 </r>
       <r>    2.1662   -0.0011 </r>
       <r>    2.2024   -0.0005 </r>
       <r>    2.2304   -0.0002 </r>
       <r>    2.3542   -0.0000 </r>
       <r>    2.3595   -0.0000 </r>
       <r>    2.4097   -0.0000 </r>
       <r>    2.4649   -0.0000 </r>
       <r>    2.5414   -0.0000 </r>
       <r>    2.5891   -0.0000 </r>
       <r>    2.7970   -0.0000 </r>
       <r>    2.8768   -0.0000 </r>
      </set>
      <set comment="kpoint 4">
       <r>  -22.4733    1.0000 </r>
       <r>  -22.4336    1.0000 </r>
       <r>  -22.4012    1.0000 </r>
       <r>  -22.3827    1.0000 </r>
       <r>  -22.3346    1.0000 </r>
       <r>  -22.3160    1.0000 </r>
       <r>  -22.2451    1.0000 </r>
       <r>  -22.2175    1.0000 </r>
       <r>  -22.1743    1.0000 </r>
       <r>  -22.1175    1.0000 </r>
       <r>  -22.0090    1.0000 </r>
       <r>  -21.9873    1.0000 </r>
       <r>  -21.9075    1.0000 </r>
       <r>  -21.8414    1.0000 </r>
       <r>  -16.8429    1.0000 </r>
       <r>  -16.7405    1.0000 </r>
       <r>   -5.6537    1.0000 </r>
       <r>   -5.6370    1.0000 </r>
       <r>   -5.5666    1.0000 </r>
       <r>   -5.5518    1.0000 </r>
       <r>   -5.2843    1.0000 </r>
       <r>   -5.2242    1.0000 </r>
       <r>   -5.1340    1.0000 </r>
       <r>   -5.1243    1.0000 </r>
       <r>   -4.9109    1.0000 </r>
       <r>   -4.8364    1.0000 </r>
       <r>   -4.8117    1.0000 </r>
       <r>   -4.7592    1.0000 </r>
       <r>   -4.5358    1.0000 </r>
       <r>   -4.4800    1.0000 </r>
       <r>   -4.4121    1.0000 </r>
       <r>   -4.3306    1.0000 </r>
       <r>   -4.3245    1.0000 </r>
       <r>   -4.2678    1.0000 </r>
       <r>   -4.2301    1.0000 </r>
       <r>   -4.1690    1.0000 </r>
       <r>   -4.0855    1.0000 </r>
       <r>   -4.0604    1.0000 </r>
       <r>   -3.9896    1.0000 </r>
       <r>   -3.9310    1.0000 </r>
       <r>   -3.7938    1.0000 </r>
       <r>   -3.7452    1.0000 </r>
       <r>   -3.6607    1.0000 </r>
       <r>   -3.5528    1.0000 </r>
       <r>   -3.4399    1.0000 </r>
       <r>   -3.3860    1.0000 </r>
       <r>   -3.3753    1.0000 </r>
       <r>   -3.3655    1.0000 </r>
       <r>   -3.3071    1.0000 </r>
       <r>   -3.2951    1.0000 </r>
       <r>   -3.1832    1.0000 </r>
       <r>   -3.1190    1.0000 </r>
       <r>   -3.0771    1.0000 </r>
       <r>   -3.0182    1.0000 </r>
       <r>   -2.9688    1.0000 </r>
       <r>   -2.8795    1.0000 </r>
       <r>   -2.8283    1.0000 </r>
       <r>   -2.7898    1.0000 </r>
       <r>   -2.7325    1.0000 </r>
       <r>   -2.7034    1.0000 </r>
       <r>   -2.5948    1.0000 </r>
       <r>   -2.4777    1.0000 </r>
       <r>   -1.8527    1.0000 </r>
       <r>   -1.7546    1.0000 </r>
       <r>    0.9101    1.0000 </r>
       <r>    0.9352    1.0000 </r>
       <r>    0.9537    1.0000 </r>
       <r>    0.9972    1.0000 </r>
       <r>    1.0117    1.0000 </r>
       <r>    1.0741    1.0001 </r>
       <r>    1.0919    1.0002 </r>
       <r>    1.1335    1.0006 </r>
       <r>    1.1551    1.0009 </r>
       <r>    1.1754    1.0015 </r>
       <r>    1.2155    1.0033 </r>
       <r>    1.2554    1.0068 </r>
       <r>    1.3188    1.0172 </r>
       <r>    1.3445    1.0229 </r>
       <r>    1.3510    1.0244 </r>
       <r>    1.4033    1.0345 </r>
       <r>    1.4280    1.0352 </r>
       <r>    1.4413    1.0335 </r>
       <r>    1.4621    1.0267 </r>
       <r>    1.4906    1.0064 </r>
       <r>    1.5151    0.9763 </r>
       <r>    1.5372    0.9370 </r>
       <r>    1.6612    0.5168 </r>
       <r>    1.7026    0.3446 </r>
       <r>    1.7118    0.3085 </r>
       <r>    1.7597    0.1454 </r>
       <r>    1.7987    0.0520 </r>
       <r>    1.8212    0.0153 </r>
       <r>    2.1001   -0.0044 </r>
       <r>    2.1127   -0.0034 </r>
       <r>    2.1632   -0.0012 </r>
       <r>    2.2222   -0.0003 </r>
       <r>    2.2480   -0.0001 </r>
       <r>    2.3413   -0.0000 </r>
       <r>    2.4097   -0.0000 </r>
       <r>    2.5230   -0.0000 </r>
       <r>    2.6805   -0.0000 </r>
       <r>    2.7429   -0.0000 </r>
       <r>    3.0101   -0.0000 </r>
       <r>    3.0351   -0.0000 </r>
      </set>
      <set comment="kpoint 5">
       <r>  -22.6772    1.0000 </r>
       <r>  -22.6084    1.0000 </r>
       <r>  -22.3633    1.0000 </r>
       <r>  -22.3312    1.0000 </r>
       <r>  -22.2833    1.0000 </r>
       <r>  -22.2472    1.0000 </r>
       <r>  -22.2353    1.0000 </r>
       <r>  -22.1910    1.0000 </r>
       <r>  -22.1403    1.0000 </r>
       <r>  -22.0908    1.0000 </r>
       <r>  -21.9828    1.0000 </r>
       <r>  -21.9799    1.0000 </r>
       <r>  -21.8805    1.0000 </r>
       <r>  -21.8148    1.0000 </r>
       <r>  -16.8339    1.0000 </r>
       <r>  -16.7309    1.0000 </r>
       <r>   -6.0320    1.0000 </r>
       <r>   -5.9622    1.0000 </r>
       <r>   -5.2335    1.0000 </r>
       <r>   -5.2170    1.0000 </r>
       <r>   -5.0872    1.0000 </r>
       <r>   -5.0137    1.0000 </r>
       <r>   -4.9633    1.0000 </r>
       <r>   -4.9557    1.0000 </r>
       <r>   -4.9212    1.0000 </r>
       <r>   -4.8782    1.0000 </r>
       <r>   -4.8534    1.0000 </r>
       <r>   -4.7739    1.0000 </r>
       <r>   -4.5223    1.0000 </r>
       <r>   -4.5078    1.0000 </r>
       <r>   -4.4459    1.0000 </r>
       <r>   -4.4226    1.0000 </r>
       <r>   -4.3455    1.0000 </r>
       <r>   -4.3098    1.0000 </r>
       <r>   -4.2816    1.0000 </r>
       <r>   -4.2485    1.0000 </r>
       <r>   -4.1631    1.0000 </r>
       <r>   -4.1392    1.0000 </r>
       <r>   -4.0668    1.0000 </r>
       <r>   -4.0527    1.0000 </r>
       <r>   -4.0349    1.0000 </r>
       <r>   -3.9714    1.0000 </r>
       <r>   -3.8859    1.0000 </r>
       <r>   -3.8422    1.0000 </r>
       <r>   -3.6235    1.0000 </r>
       <r>   -3.5839    1.0000 </r>
       <r>   -3.4002    1.0000 </r>
       <r>   -3.3474    1.0000 </r>
       <r>   -3.3101    1.0000 </r>
       <r>   -3.2594    1.0000 </r>
       <r>   -3.0809    1.0000 </r>
       <r>   -3.0297    1.0000 </r>
       <r>   -2.9231    1.0000 </r>
       <r>   -2.8932    1.0000 </r>
       <r>   -2.8666    1.0000 </r>
       <r>   -2.8477    1.0000 </r>
       <r>   -2.7527    1.0000 </r>
       <r>   -2.7262    1.0000 </r>
       <r>   -2.5531    1.0000 </r>
       <r>   -2.4586    1.0000 </r>
       <r>   -2.3724    1.0000 </r>
       <r>   -2.3350    1.0000 </r>
       <r>   -1.6397    1.0000 </r>
       <r>   -1.5443    1.0000 </r>
       <r>    0.9419    1.0000 </r>
       <r>    0.9568    1.0000 </r>
       <r>    0.9695    1.0000 </r>
       <r>    0.9860    1.0000 </r>
       <r>    1.0100    1.0000 </r>
       <r>    1.0335    1.0000 </r>
       <r>    1.0782    1.0001 </r>
       <r>    1.0883    1.0002 </r>
       <r>    1.1370    1.0006 </r>
       <r>    1.1491    1.0008 </r>
       <r>    1.1687    1.0013 </r>
       <r>    1.1955    1.0022 </r>
       <r>    1.2711    1.0088 </r>
       <r>    1.2860    1.0110 </r>
       <r>    1.3243    1.0183 </r>
       <r>    1.3389    1.0216 </r>
       <r>    1.4193    1.0355 </r>
       <r>    1.4417    1.0334 </r>
       <r>    1.4804    1.0153 </r>
       <r>    1.4927    1.0043 </r>
       <r>    1.6056    0.7401 </r>
       <r>    1.6151    0.7049 </r>
       <r>    1.6463    0.5797 </r>
       <r>    1.6581    0.5300 </r>
       <r>    1.7129    0.3043 </r>
       <r>    1.7233    0.2652 </r>
       <r>    1.7606    0.1429 </r>
       <r>    1.7697    0.1178 </r>
       <r>    1.9142   -0.0354 </r>
       <r>    1.9234   -0.0348 </r>
       <r>    2.2434   -0.0002 </r>
       <r>    2.2567   -0.0001 </r>
       <r>    2.3847   -0.0000 </r>
       <r>    2.4322   -0.0000 </r>
       <r>    2.7427   -0.0000 </r>
       <r>    2.7641   -0.0000 </r>
       <r>    2.9014   -0.0000 </r>
       <r>    2.9265   -0.0000 </r>
       <r>    3.0456   -0.0000 </r>
       <r>    3.0796   -0.0000 </r>
      </set>
      <set comment="kpoint 6">
       <r>  -22.5351    1.0000 </r>
       <r>  -22.5286    1.0000 </r>
       <r>  -22.5042    1.0000 </r>
       <r>  -22.3824    1.0000 </r>
       <r>  -22.2924    1.0000 </r>
       <r>  -22.2832    1.0000 </r>
       <r>  -22.2452    1.0000 </r>
       <r>  -22.2004    1.0000 </r>
       <r>  -22.1330    1.0000 </r>
       <r>  -22.0824    1.0000 </r>
       <r>  -21.9709    1.0000 </r>
       <r>  -21.9704    1.0000 </r>
       <r>  -21.8919    1.0000 </r>
       <r>  -21.8208    1.0000 </r>
       <r>  -16.8389    1.0000 </r>
       <r>  -16.7363    1.0000 </r>
       <r>   -5.6189    1.0000 </r>
       <r>   -5.6056    1.0000 </r>
       <r>   -5.4222    1.0000 </r>
       <r>   -5.3441    1.0000 </r>
       <r>   -5.1095    1.0000 </r>
       <r>   -5.0918    1.0000 </r>
       <r>   -5.0033    1.0000 </r>
       <r>   -4.9245    1.0000 </r>
       <r>   -4.7907    1.0000 </r>
       <r>   -4.7662    1.0000 </r>
       <r>   -4.6363    1.0000 </r>
       <r>   -4.6222    1.0000 </r>
       <r>   -4.5484    1.0000 </r>
       <r>   -4.5141    1.0000 </r>
       <r>   -4.4126    1.0000 </r>
       <r>   -4.3837    1.0000 </r>
       <r>   -4.3267    1.0000 </r>
       <r>   -4.2947    1.0000 </r>
       <r>   -4.2276    1.0000 </r>
       <r>   -4.1937    1.0000 </r>
       <r>   -4.1394    1.0000 </r>
       <r>   -4.1197    1.0000 </r>
       <r>   -4.0363    1.0000 </r>
       <r>   -4.0059    1.0000 </r>
       <r>   -3.9579    1.0000 </r>
       <r>   -3.9043    1.0000 </r>
       <r>   -3.8596    1.0000 </r>
       <r>   -3.7997    1.0000 </r>
       <r>   -3.7295    1.0000 </r>
       <r>   -3.7050    1.0000 </r>
       <r>   -3.6520    1.0000 </r>
       <r>   -3.5895    1.0000 </r>
       <r>   -3.3595    1.0000 </r>
       <r>   -3.3249    1.0000 </r>
       <r>   -3.2399    1.0000 </r>
       <r>   -3.1670    1.0000 </r>
       <r>   -3.0706    1.0000 </r>
       <r>   -3.0266    1.0000 </r>
       <r>   -2.8856    1.0000 </r>
       <r>   -2.7926    1.0000 </r>
       <r>   -2.7778    1.0000 </r>
       <r>   -2.7457    1.0000 </r>
       <r>   -2.6665    1.0000 </r>
       <r>   -2.6417    1.0000 </r>
       <r>   -2.6078    1.0000 </r>
       <r>   -2.5891    1.0000 </r>
       <r>   -1.7509    1.0000 </r>
       <r>   -1.6624    1.0000 </r>
       <r>    0.9363    1.0000 </r>
       <r>    0.9443    1.0000 </r>
       <r>    1.0462    1.0001 </r>
       <r>    1.0596    1.0001 </r>
       <r>    1.1213    1.0004 </r>
       <r>    1.1398    1.0006 </r>
       <r>    1.1891    1.0019 </r>
       <r>    1.2111    1.0030 </r>
       <r>    1.2304    1.0044 </r>
       <r>    1.2648    1.0079 </r>
       <r>    1.2951    1.0126 </r>
       <r>    1.3042    1.0142 </r>
       <r>    1.3142    1.0162 </r>
       <r>    1.3248    1.0185 </r>
       <r>    1.3673    1.0281 </r>
       <r>    1.3848    1.0317 </r>
       <r>    1.3920    1.0329 </r>
       <r>    1.4047    1.0346 </r>
       <r>    1.4343    1.0346 </r>
       <r>    1.4466    1.0323 </r>
       <r>    1.5554    0.8957 </r>
       <r>    1.5570    0.8917 </r>
       <r>    1.7637    0.1339 </r>
       <r>    1.7693    0.1188 </r>
       <r>    1.8584   -0.0212 </r>
       <r>    1.8632   -0.0241 </r>
       <r>    1.9267   -0.0345 </r>
       <r>    1.9380   -0.0330 </r>
       <r>    2.0821   -0.0060 </r>
       <r>    2.1069   -0.0039 </r>
       <r>    2.1887   -0.0007 </r>
       <r>    2.1990   -0.0005 </r>
       <r>    2.2330   -0.0002 </r>
       <r>    2.2841   -0.0001 </r>
       <r>    2.3856   -0.0000 </r>
       <r>    2.4032   -0.0000 </r>
       <r>    2.5168   -0.0000 </r>
       <r>    2.5486   -0.0000 </r>
       <r>    3.0206   -0.0000 </r>
       <r>    3.0347   -0.0000 </r>
      </set>
      <set comment="kpoint 7">
       <r>  -22.5065    1.0000 </r>
       <r>  -22.4641    1.0000 </r>
       <r>  -22.4452    1.0000 </r>
       <r>  -22.3703    1.0000 </r>
       <r>  -22.3213    1.0000 </r>
       <r>  -22.3021    1.0000 </r>
       <r>  -22.2285    1.0000 </r>
       <r>  -22.1820    1.0000 </r>
       <r>  -22.1722    1.0000 </r>
       <r>  -22.1134    1.0000 </r>
       <r>  -22.0380    1.0000 </r>
       <r>  -22.0074    1.0000 </r>
       <r>  -21.8765    1.0000 </r>
       <r>  -21.8180    1.0000 </r>
       <r>  -16.8389    1.0000 </r>
       <r>  -16.7366    1.0000 </r>
       <r>   -5.6592    1.0000 </r>
       <r>   -5.5845    1.0000 </r>
       <r>   -5.5755    1.0000 </r>
       <r>   -5.5329    1.0000 </r>
       <r>   -5.3479    1.0000 </r>
       <r>   -5.3430    1.0000 </r>
       <r>   -5.2898    1.0000 </r>
       <r>   -5.2239    1.0000 </r>
       <r>   -4.8940    1.0000 </r>
       <r>   -4.8792    1.0000 </r>
       <r>   -4.8311    1.0000 </r>
       <r>   -4.8078    1.0000 </r>
       <r>   -4.5484    1.0000 </r>
       <r>   -4.4914    1.0000 </r>
       <r>   -4.4027    1.0000 </r>
       <r>   -4.3767    1.0000 </r>
       <r>   -4.2837    1.0000 </r>
       <r>   -4.2035    1.0000 </r>
       <r>   -4.1779    1.0000 </r>
       <r>   -4.1310    1.0000 </r>
       <r>   -4.0914    1.0000 </r>
       <r>   -4.0068    1.0000 </r>
       <r>   -3.9737    1.0000 </r>
       <r>   -3.9403    1.0000 </r>
       <r>   -3.9026    1.0000 </r>
       <r>   -3.8621    1.0000 </r>
       <r>   -3.7389    1.0000 </r>
       <r>   -3.6967    1.0000 </r>
       <r>   -3.6118    1.0000 </r>
       <r>   -3.6007    1.0000 </r>
       <r>   -3.4916    1.0000 </r>
       <r>   -3.4518    1.0000 </r>
       <r>   -3.2176    1.0000 </r>
       <r>   -3.1713    1.0000 </r>
       <r>   -3.1504    1.0000 </r>
       <r>   -3.1121    1.0000 </r>
       <r>   -2.9434    1.0000 </r>
       <r>   -2.9334    1.0000 </r>
       <r>   -2.8606    1.0000 </r>
       <r>   -2.8213    1.0000 </r>
       <r>   -2.7847    1.0000 </r>
       <r>   -2.7700    1.0000 </r>
       <r>   -2.6461    1.0000 </r>
       <r>   -2.5923    1.0000 </r>
       <r>   -2.4415    1.0000 </r>
       <r>   -2.3934    1.0000 </r>
       <r>   -1.7151    1.0000 </r>
       <r>   -1.6268    1.0000 </r>
       <r>    0.9711    1.0000 </r>
       <r>    0.9830    1.0000 </r>
       <r>    1.0483    1.0001 </r>
       <r>    1.0633    1.0001 </r>
       <r>    1.1128    1.0003 </r>
       <r>    1.1504    1.0008 </r>
       <r>    1.1852    1.0018 </r>
       <r>    1.1908    1.0020 </r>
       <r>    1.2157    1.0033 </r>
       <r>    1.2401    1.0052 </r>
       <r>    1.2871    1.0112 </r>
       <r>    1.3010    1.0136 </r>
       <r>    1.3090    1.0152 </r>
       <r>    1.3298    1.0196 </r>
       <r>    1.3774    1.0303 </r>
       <r>    1.3850    1.0317 </r>
       <r>    1.3971    1.0337 </r>
       <r>    1.4047    1.0346 </r>
       <r>    1.4366    1.0343 </r>
       <r>    1.4491    1.0316 </r>
       <r>    1.4918    1.0052 </r>
       <r>    1.4982    0.9985 </r>
       <r>    1.7000    0.3552 </r>
       <r>    1.7111    0.3112 </r>
       <r>    1.8341   -0.0006 </r>
       <r>    1.8411   -0.0077 </r>
       <r>    1.9501   -0.0308 </r>
       <r>    1.9560   -0.0296 </r>
       <r>    2.0631   -0.0083 </r>
       <r>    2.1121   -0.0035 </r>
       <r>    2.2081   -0.0004 </r>
       <r>    2.2370   -0.0002 </r>
       <r>    2.3257   -0.0000 </r>
       <r>    2.3404   -0.0000 </r>
       <r>    2.4506   -0.0000 </r>
       <r>    2.4624   -0.0000 </r>
       <r>    2.5467   -0.0000 </r>
       <r>    2.5769   -0.0000 </r>
       <r>    2.8177   -0.0000 </r>
       <r>    2.8423   -0.0000 </r>
      </set>
      <set comment="kpoint 8">
       <r>  -22.4729    1.0000 </r>
       <r>  -22.4325    1.0000 </r>
       <r>  -22.4023    1.0000 </r>
       <r>  -22.3810    1.0000 </r>
       <r>  -22.3418    1.0000 </r>
       <r>  -22.3134    1.0000 </r>
       <r>  -22.2422    1.0000 </r>
       <r>  -22.2154    1.0000 </r>
       <r>  -22.1749    1.0000 </r>
       <r>  -22.1179    1.0000 </r>
       <r>  -22.0076    1.0000 </r>
       <r>  -21.9889    1.0000 </r>
       <r>  -21.9062    1.0000 </r>
       <r>  -21.8412    1.0000 </r>
       <r>  -16.8428    1.0000 </r>
       <r>  -16.7405    1.0000 </r>
       <r>   -5.6667    1.0000 </r>
       <r>   -5.6549    1.0000 </r>
       <r>   -5.5303    1.0000 </r>
       <r>   -5.5211    1.0000 </r>
       <r>   -5.3019    1.0000 </r>
       <r>   -5.2613    1.0000 </r>
       <r>   -5.1706    1.0000 </r>
       <r>   -5.1517    1.0000 </r>
       <r>   -4.8868    1.0000 </r>
       <r>   -4.8687    1.0000 </r>
       <r>   -4.7387    1.0000 </r>
       <r>   -4.7208    1.0000 </r>
       <r>   -4.5413    1.0000 </r>
       <r>   -4.4976    1.0000 </r>
       <r>   -4.4164    1.0000 </r>
       <r>   -4.4055    1.0000 </r>
       <r>   -4.2206    1.0000 </r>
       <r>   -4.1916    1.0000 </r>
       <r>   -4.1376    1.0000 </r>
       <r>   -4.0874    1.0000 </r>
       <r>   -4.0818    1.0000 </r>
       <r>   -4.0514    1.0000 </r>
       <r>   -3.9974    1.0000 </r>
       <r>   -3.9684    1.0000 </r>
       <r>   -3.9112    1.0000 </r>
       <r>   -3.8640    1.0000 </r>
       <r>   -3.6618    1.0000 </r>
       <r>   -3.6241    1.0000 </r>
       <r>   -3.4343    1.0000 </r>
       <r>   -3.4236    1.0000 </r>
       <r>   -3.3940    1.0000 </r>
       <r>   -3.3481    1.0000 </r>
       <r>   -3.3165    1.0000 </r>
       <r>   -3.2540    1.0000 </r>
       <r>   -3.1848    1.0000 </r>
       <r>   -3.1095    1.0000 </r>
       <r>   -3.0271    1.0000 </r>
       <r>   -3.0191    1.0000 </r>
       <r>   -2.9752    1.0000 </r>
       <r>   -2.9398    1.0000 </r>
       <r>   -2.8003    1.0000 </r>
       <r>   -2.7577    1.0000 </r>
       <r>   -2.7444    1.0000 </r>
       <r>   -2.7014    1.0000 </r>
       <r>   -2.5652    1.0000 </r>
       <r>   -2.4756    1.0000 </r>
       <r>   -1.8378    1.0000 </r>
       <r>   -1.7525    1.0000 </r>
       <r>    0.8821    1.0000 </r>
       <r>    0.8977    1.0000 </r>
       <r>    0.9460    1.0000 </r>
       <r>    0.9643    1.0000 </r>
       <r>    1.0485    1.0001 </r>
       <r>    1.0591    1.0001 </r>
       <r>    1.1364    1.0006 </r>
       <r>    1.1393    1.0006 </r>
       <r>    1.1843    1.0018 </r>
       <r>    1.1930    1.0021 </r>
       <r>    1.2288    1.0043 </r>
       <r>    1.2430    1.0055 </r>
       <r>    1.3238    1.0182 </r>
       <r>    1.3457    1.0232 </r>
       <r>    1.3727    1.0293 </r>
       <r>    1.3791    1.0306 </r>
       <r>    1.3919    1.0329 </r>
       <r>    1.4121    1.0352 </r>
       <r>    1.4672    1.0240 </r>
       <r>    1.4836    1.0128 </r>
       <r>    1.5226    0.9642 </r>
       <r>    1.5253    0.9597 </r>
       <r>    1.6349    0.6266 </r>
       <r>    1.6403    0.6044 </r>
       <r>    1.7914    0.0665 </r>
       <r>    1.7991    0.0512 </r>
       <r>    1.9230   -0.0349 </r>
       <r>    1.9255   -0.0346 </r>
       <r>    2.0083   -0.0179 </r>
       <r>    2.0298   -0.0136 </r>
       <r>    2.1124   -0.0035 </r>
       <r>    2.1146   -0.0033 </r>
       <r>    2.3363   -0.0000 </r>
       <r>    2.3399   -0.0000 </r>
       <r>    2.4998   -0.0000 </r>
       <r>    2.5297   -0.0000 </r>
       <r>    2.6494   -0.0000 </r>
       <r>    2.6744   -0.0000 </r>
       <r>    3.0330   -0.0000 </r>
       <r>    3.0477   -0.0000 </r>
      </set>
     </set>
    </set>
   </array>
  </eigenvalues>
  <separator name="orbital magnetization" >
   <v name="MAGDIPOLOUT">      0.00000000      0.00000000      0.00000000</v>
  </separator>
 </calculation>
 <structure name="finalpos" >
  <crystal>
   <varray name="basis" >
    <v>       5.73591900       0.00000000      -0.79026700 </v>
    <v>       0.00000000       4.78544200       0.00000000 </v>
    <v>       0.00000000       0.00000000      10.88396600 </v>
   </varray>
   <i name="volume">    298.75297805 </i>
   <varray name="rec_basis" >
    <v>       0.17433998       0.00000000       0.00000000 </v>
    <v>       0.00000000       0.20896711       0.00000000 </v>
    <v>       0.01265854       0.00000000       0.09187827 </v>
   </varray>
  </crystal>
  <varray name="positions" >
   <v>       0.24699400       0.24850600       0.74541500 </v>
   <v>       0.24699400       0.75149400       0.24623300 </v>
   <v>       0.51485700       0.24497600       0.49256300 </v>
   <v>       0.51485700       0.75502400       0.99879200 </v>
   <v>       0.75373900       0.23127500       0.26486200 </v>
   <v>       0.75373900       0.76872500       0.76486200 </v>
   <v>       0.99045900       0.24137200       0.99652900 </v>
   <v>       0.99045900       0.75862800       0.49753900 </v>
   <v>       0.77857200       0.05847800       0.41725200 </v>
   <v>       0.78533300       0.94152200       0.91725200 </v>
   <v>       0.01370000       0.05755600       0.18278600 </v>
   <v>       0.01370000       0.94244400       0.68278600 </v>
   <v>       0.22224900       0.44944100       0.57827600 </v>
   <v>       0.22718800       0.55055900       0.07080400 </v>
   <v>       0.27923300       0.05174700       0.92203700 </v>
   <v>       0.27923300       0.94659800       0.42203700 </v>
   <v>       0.48187500       0.45353000       0.31584000 </v>
   <v>       0.48187500       0.54647000       0.81584000 </v>
   <v>       0.52253600       0.03560000       0.67416600 </v>
   <v>       0.52253600       0.97252300       0.17416600 </v>
   <v>       0.72235300       0.43845700       0.09109400 </v>
   <v>       0.72235300       0.55698000       0.59109400 </v>
   <v>       0.96880300       0.45650500       0.81960400 </v>
   <v>       0.97343300       0.54349500       0.31960400 </v>
  </varray>
 </structure>
</modeling>
