<?xml version="1.0" encoding="ISO-8859-1"?>
<modeling>
 <generator>
  <i name="program" type="string">vasp </i>
  <i name="version" type="string">5.3.5  </i>
  <i name="subversion" type="string">31Mar14 (build Aug 29 2014 19:41:47) complex                          parallel </i>
  <i name="platform" type="string">LinuxIFC </i>
  <i name="date" type="string">2019 04 11 </i>
  <i name="time" type="string">12:47:07 </i>
 </generator>
 <incar>
  <i type="string" name="SYSTEM"> Fe4OF7</i>
  <i type="int" name="ISTART">     0</i>
  <i type="string" name="PREC">normal</i>
  <i type="string" name="ALGO"> VeryFast</i>
  <i type="int" name="ISPIN">     1</i>
  <i type="int" name="ICHARG">     2</i>
  <i type="int" name="NELM">   300</i>
  <i type="int" name="ISYM">     0</i>
  <i type="logical" name="LWAVE"> F  </i>
  <i type="int" name="NELM">   300</i>
 </incar>
 <kpoints>
  <generation param="Gamma">
   <v type="int" name="divisions">       1        1        1 </v>
   <v name="usershift">      0.00000000       0.00000000       0.00000000 </v>
   <v name="genvec1">      1.00000000       0.00000000       0.00000000 </v>
   <v name="genvec2">      0.00000000       1.00000000       0.00000000 </v>
   <v name="genvec3">     -0.00000000       0.00000000       1.00000000 </v>
   <v name="shift">      0.00000000       0.00000000       0.00000000 </v>
  </generation>
  <varray name="kpointlist" >
   <v>       0.00000000       0.00000000       0.00000000 </v>
  </varray>
  <varray name="weights" >
   <v>       1.00000000 </v>
  </varray>
 </kpoints>
 <parameters>
  <separator name="general" >
   <i type="string" name="SYSTEM">Fe4OF7</i>
   <i type="logical" name="LCOMPAT"> F  </i>
  </separator>
  <separator name="electronic" >
   <i type="string" name="PREC">normal</i>
   <i name="ENMAX">    400.00000000</i>
   <i name="ENAUG">    613.61400000</i>
   <i name="EDIFF">      0.00010000</i>
   <i type="int" name="IALGO">    48</i>
   <i type="int" name="IWAVPR">    10</i>
   <i type="int" name="NBANDS">   104</i>
   <i name="NELECT">    174.00000000</i>
   <i type="int" name="TURBO">     0</i>
   <i type="int" name="IRESTART">     0</i>
   <i type="int" name="NREBOOT">     0</i>
   <i type="int" name="NMIN">     0</i>
   <i name="EREF">      0.00000000</i>
   <separator name="electronic smearing" >
    <i type="int" name="ISMEAR">     1</i>
    <i name="SIGMA">      0.20000000</i>
    <i name="KSPACING">      0.50000000</i>
    <i type="logical" name="KGAMMA"> T  </i>
   </separator>
   <separator name="electronic projectors" >
    <i type="logical" name="LREAL"> F  </i>
    <v name="ROPT">      0.00000000      0.00000000      0.00000000</v>
    <i type="int" name="LMAXPAW">  -100</i>
    <i type="int" name="LMAXMIX">     2</i>
    <i type="logical" name="NLSPLINE"> F  </i>
   </separator>
   <separator name="electronic startup" >
    <i type="int" name="ISTART">     0</i>
    <i type="int" name="ICHARG">     2</i>
    <i type="int" name="INIWAV">     1</i>
   </separator>
   <separator name="electronic spin" >
    <i type="int" name="ISPIN">     1</i>
    <i type="logical" name="LNONCOLLINEAR"> F  </i>
    <v name="MAGMOM">      1.00000000      1.00000000      1.00000000      1.00000000      1.00000000      1.00000000      1.00000000      1.00000000      1.00000000      1.00000000      1.00000000      1.00000000      1.00000000      1.00000000      1.00000000      1.00000000      1.00000000      1.00000000      1.00000000      1.00000000
      1.00000000      1.00000000      1.00000000      1.00000000</v>
    <i name="NUPDOWN">     -1.00000000</i>
    <i type="logical" name="LSORBIT"> F  </i>
    <v name="SAXIS">      0.00000000      0.00000000      1.00000000</v>
    <i type="logical" name="LSPIRAL"> F  </i>
    <v name="QSPIRAL">      0.00000000      0.00000000      0.00000000</v>
    <i type="logical" name="LZEROZ"> F  </i>
   </separator>
   <separator name="electronic exchange-correlation" >
    <i type="logical" name="LASPH"> F  </i>
    <i type="logical" name="LMETAGGA"> F  </i>
   </separator>
   <separator name="electronic convergence" >
    <i type="int" name="NELM">   300</i>
    <i type="int" name="NELMDL">   -12</i>
    <i type="int" name="NELMIN">     2</i>
    <i name="ENINI">    400.00000000</i>
    <separator name="electronic convergence detail" >
     <i type="logical" name="LDIAG"> T  </i>
     <i type="logical" name="LSUBROT"> F  </i>
     <i name="WEIMIN">      0.00000000</i>
     <i name="EBREAK">      0.00000024</i>
     <i name="DEPER">      0.30000000</i>
     <i type="int" name="NRMM">     4</i>
     <i name="TIME">      0.40000000</i>
    </separator>
   </separator>
   <separator name="electronic mixer" >
    <i name="AMIX">      0.40000000</i>
    <i name="BMIX">      1.00000000</i>
    <i name="AMIN">      0.10000000</i>
    <i name="AMIX_MAG">      1.60000000</i>
    <i name="BMIX_MAG">      1.00000000</i>
    <separator name="electronic mixer details" >
     <i type="int" name="IMIX">     4</i>
     <i type="int" name="MAXMIX">   -45</i>
     <i name="WC">    100.00000000</i>
     <i type="int" name="INIMIX">     1</i>
     <i type="int" name="MIXPRE">     1</i>
     <i type="int" name="MREMOVE">     5</i>
    </separator>
   </separator>
   <separator name="electronic dipolcorrection" >
    <i type="logical" name="LDIPOL"> F  </i>
    <i type="logical" name="LMONO"> F  </i>
    <i type="int" name="IDIPOL">     0</i>
    <i name="EPSILON">      1.00000000</i>
    <v name="DIPOL">   -100.00000000   -100.00000000   -100.00000000</v>
    <i name="EFIELD">      0.00000000</i>
   </separator>
  </separator>
  <separator name="grids" >
   <i type="int" name="NGX">    28</i>
   <i type="int" name="NGY">    24</i>
   <i type="int" name="NGZ">    54</i>
   <i type="int" name="NGXF">    56</i>
   <i type="int" name="NGYF">    48</i>
   <i type="int" name="NGZF">   108</i>
   <i type="logical" name="ADDGRID"> F  </i>
  </separator>
  <separator name="ionic" >
   <i type="int" name="NSW">     0</i>
   <i type="int" name="IBRION">    -1</i>
   <i type="int" name="ISIF">     2</i>
   <i name="PSTRESS">      0.00000000</i>
   <i name="EDIFFG">      0.00100000</i>
   <i type="int" name="NFREE">     0</i>
   <i name="POTIM">      0.50000000</i>
   <i name="SMASS">     -3.00000000</i>
   <i name="SCALEE">      1.00000000</i>
  </separator>
  <separator name="ionic md" >
   <i name="TEBEG">      0.00010000</i>
   <i name="TEEND">      0.00010000</i>
   <i type="int" name="NBLOCK">     1</i>
   <i type="int" name="KBLOCK">     1</i>
   <i type="int" name="NPACO">   256</i>
   <i name="APACO">     16.00000000</i>
  </separator>
  <separator name="symmetry" >
   <i type="int" name="ISYM">     0</i>
   <i name="SYMPREC">      0.00001000</i>
  </separator>
  <separator name="dos" >
   <i type="logical" name="LORBIT"> F  </i>
   <v name="RWIGS">     -1.00000000     -1.00000000     -1.00000000</v>
   <i type="int" name="NEDOS">   301</i>
   <i name="EMIN">     10.00000000</i>
   <i name="EMAX">    -10.00000000</i>
   <i name="EFERMI">      0.00000000</i>
  </separator>
  <separator name="writing" >
   <i type="int" name="NWRITE">     2</i>
   <i type="logical" name="LWAVE"> F  </i>
   <i type="logical" name="LCHARG"> T  </i>
   <i type="logical" name="LPARD"> F  </i>
   <i type="logical" name="LVTOT"> F  </i>
   <i type="logical" name="LVHAR"> F  </i>
   <i type="logical" name="LELF"> F  </i>
   <i type="logical" name="LOPTICS"> F  </i>
   <v name="STM">      0.00000000      0.00000000      0.00000000      0.00000000      0.00000000      0.00000000      0.00000000</v>
  </separator>
  <separator name="performance" >
   <i type="int" name="NPAR">     4</i>
   <i type="int" name="NSIM">     4</i>
   <i type="int" name="NBLK">    -1</i>
   <i type="logical" name="LPLANE"> T  </i>
   <i type="logical" name="LSCALAPACK"> T  </i>
   <i type="logical" name="LSCAAWARE"> F  </i>
   <i type="logical" name="LSCALU"> F  </i>
   <i type="logical" name="LASYNC"> F  </i>
   <i type="logical" name="LORBITALREAL"> F  </i>
  </separator>
  <separator name="miscellaneous" >
   <i type="int" name="IDIOT">     3</i>
   <i type="logical" name="LMUSIC"> F  </i>
   <v name="POMASS">     55.84700000     16.00000000     18.99800000</v>
   <v name="DARWINR">      0.00000000      0.00000000      0.00000000</v>
   <v name="DARWINV">      1.00000000      1.00000000      1.00000000</v>
   <i type="logical" name="LCORR"> T  </i>
  </separator>
  <i type="logical" name="GGA_COMPAT"> T  </i>
  <i type="logical" name="LBERRY"> F  </i>
  <i type="int" name="ICORELEVEL">     0</i>
  <i type="logical" name="LDAU"> F  </i>
  <i type="int" name="I_CONSTRAINED_M">     0</i>
  <separator name="electronic exchange-correlation" >
   <i type="string" name="GGA">--</i>
   <i type="int" name="VOSKOWN">     0</i>
   <i type="logical" name="LHFCALC"> F  </i>
   <i type="string" name="PRECFOCK"></i>
   <i type="logical" name="LSYMGRAD"> F  </i>
   <i type="logical" name="LHFONE"> F  </i>
   <i type="logical" name="LRHFCALC"> F  </i>
   <i type="logical" name="LTHOMAS"> F  </i>
   <i type="logical" name="LMODELHF"> F  </i>
   <i name="ENCUT4O">     -1.00000000</i>
   <i type="int" name="EXXOEP">     0</i>
   <i type="int" name="FOURORBIT">     0</i>
   <i name="AEXX">      0.00000000</i>
   <i name="HFALPHA">      0.00000000</i>
   <i name="MCALPHA">      0.00000000</i>
   <i name="ALDAX">      1.00000000</i>
   <i name="AGGAX">      1.00000000</i>
   <i name="ALDAC">      1.00000000</i>
   <i name="AGGAC">      1.00000000</i>
   <i type="int" name="NKREDX">     1</i>
   <i type="int" name="NKREDY">     1</i>
   <i type="int" name="NKREDZ">     1</i>
   <i type="logical" name="SHIFTRED"> F  </i>
   <i type="logical" name="ODDONLY"> F  </i>
   <i type="logical" name="EVENONLY"> F  </i>
   <i type="int" name="LMAXFOCK">     0</i>
   <i type="int" name="NMAXFOCKAE">     0</i>
   <i type="logical" name="LFOCKAEDFT"> F  </i>
   <i name="HFSCREEN">      0.00000000</i>
   <i name="HFSCREENC">      0.00000000</i>
   <i type="int" name="NBANDSGWLOW">     0</i>
  </separator>
  <separator name="vdW DFT" >
   <i type="logical" name="LUSE_VDW"> F  </i>
   <i name="Zab_VDW">     -0.84910000</i>
   <i name="PARAM1">      0.12340000</i>
   <i name="PARAM2">      1.00000000</i>
   <i name="PARAM3">      0.00000000</i>
  </separator>
  <separator name="model GW" >
   <i type="int" name="MODEL_GW">     0</i>
   <i name="MODEL_EPS0">      7.46882445</i>
   <i name="MODEL_ALPHA">      1.00000000</i>
  </separator>
  <separator name="linear response parameters" >
   <i type="logical" name="LEPSILON"> F  </i>
   <i type="logical" name="LRPA"> F  </i>
   <i type="logical" name="LNABLA"> F  </i>
   <i type="logical" name="LVEL"> F  </i>
   <i type="int" name="KINTER">     0</i>
   <i name="CSHIFT">      0.10000000</i>
   <i name="OMEGAMAX">     -1.00000000</i>
   <i name="DEG_THRESHOLD">      0.00200000</i>
  </separator>
  <separator name="orbital magnetization" >
   <i type="logical" name="NUCIND"> F  </i>
   <v name="MAGPOS">      0.00000000      0.00000000      0.00000000</v>
   <i type="logical" name="LNICSALL"> T  </i>
   <i type="logical" name="ORBITALMAG"> F  </i>
   <i type="logical" name="LMAGBLOCH"> F  </i>
   <i type="logical" name="LCHIMAG"> F  </i>
   <i type="logical" name="LGAUGE"> T  </i>
   <i type="int" name="MAGATOM">     0</i>
   <v name="MAGDIPOL">      0.00000000      0.00000000      0.00000000</v>
   <v name="AVECCONST">      0.00000000      0.00000000      0.00000000</v>
  </separator>
  <separator name="response functions" >
   <i type="logical" name="LADDER"> F  </i>
   <i type="logical" name="LFXC"> F  </i>
   <i type="logical" name="LHARTREE"> T  </i>
   <i type="int" name="IBSE">     0</i>
   <i type="logical" name="LTCTE"> F  </i>
   <i type="logical" name="LTETE"> F  </i>
   <i type="logical" name="LTRIPLET"> F  </i>
   <i type="logical" name="LFXCEPS"> F  </i>
   <i type="logical" name="LFXHEG"> F  </i>
   <i type="logical" name="L2ORDER"> F  </i>
   <i type="logical" name="LUSEW"> F  </i>
   <i name="ENCUTGW">     -2.00000000</i>
   <i name="ENCUTGWSOFT">     -2.00000000</i>
   <i name="ENCUTLF">     -1.00000000</i>
   <i type="int" name="LMAXMP2">    -1</i>
   <i name="SCISSOR">      0.00000000</i>
   <i type="int" name="NOMEGA">     0</i>
   <i type="int" name="NOMEGAR">     0</i>
   <i type="int" name="NBANDSGW">    -1</i>
   <i type="int" name="NBANDSO">    -1</i>
   <i type="int" name="NBANDSV">    -1</i>
   <i type="int" name="NELM">   300</i>
   <i type="int" name="DIM">     3</i>
   <i type="int" name="ANTIRES">     0</i>
   <i name="OMEGAMAX">    -30.00000000</i>
   <i name="OMEGAMIN">    -30.00000000</i>
   <i name="OMEGATL">   -200.00000000</i>
   <i type="int" name="OMEGAGRID">     0</i>
   <i name="CSHIFT">     -0.10000000</i>
   <i type="logical" name="SELFENERGY"> F  </i>
   <i type="logical" name="LSPECTRAL"> F  </i>
   <i type="logical" name="ODDONLYGW"> F  </i>
   <i type="logical" name="EVENONLYGW"> F  </i>
   <i type="int" name="NKREDLFX">     1</i>
   <i type="int" name="NKREDLFY">     1</i>
   <i type="int" name="NKREDLFZ">     1</i>
   <i type="int" name="MAXMEM">  1800</i>
   <i type="int" name="TELESCOPE">     0</i>
   <i type="int" name="TAUPAR">     1</i>
  </separator>
  <separator name="External order field" >
   <i name="OFIELD_KAPPA">      0.00000000</i>
   <v name="OFIELD_K">      0.00000000      0.00000000      0.00000000</v>
   <i name="OFIELD_Q6_NEAR">      0.00000000</i>
   <i name="OFIELD_Q6_FAR">      0.00000000</i>
   <i name="OFIELD_A">      0.00000000</i>
  </separator>
 </parameters>
 <atominfo>
  <atoms>      24 </atoms>
  <types>       3 </types>
  <array name="atoms" >
   <dimension dim="1">ion</dimension>
   <field type="string">element</field>
   <field type="int">atomtype</field>
   <set>
    <rc><c>Fe</c><c>   1</c></rc>
    <rc><c>Fe</c><c>   1</c></rc>
    <rc><c>Fe</c><c>   1</c></rc>
    <rc><c>Fe</c><c>   1</c></rc>
    <rc><c>Fe</c><c>   1</c></rc>
    <rc><c>Fe</c><c>   1</c></rc>
    <rc><c>Fe</c><c>   1</c></rc>
    <rc><c>Fe</c><c>   1</c></rc>
    <rc><c>O </c><c>   2</c></rc>
    <rc><c>O </c><c>   2</c></rc>
    <rc><c>F </c><c>   3</c></rc>
    <rc><c>F </c><c>   3</c></rc>
    <rc><c>F </c><c>   3</c></rc>
    <rc><c>F </c><c>   3</c></rc>
    <rc><c>F </c><c>   3</c></rc>
    <rc><c>F </c><c>   3</c></rc>
    <rc><c>F </c><c>   3</c></rc>
    <rc><c>F </c><c>   3</c></rc>
    <rc><c>F </c><c>   3</c></rc>
    <rc><c>F </c><c>   3</c></rc>
    <rc><c>F </c><c>   3</c></rc>
    <rc><c>F </c><c>   3</c></rc>
    <rc><c>F </c><c>   3</c></rc>
    <rc><c>F </c><c>   3</c></rc>
   </set>
  </array>
  <array name="atomtypes" >
   <dimension dim="1">type</dimension>
   <field type="int">atomspertype</field>
   <field type="string">element</field>
   <field>mass</field>
   <field>valence</field>
   <field type="string">pseudopotential</field>
   <set>
    <rc><c>   8</c><c>Fe</c><c>     55.84700000</c><c>      8.00000000</c><c>  PAW_PBE Fe 06Sep2000                  </c></rc>
    <rc><c>   2</c><c>O </c><c>     16.00000000</c><c>      6.00000000</c><c>  PAW_PBE O 08Apr2002                   </c></rc>
    <rc><c>  14</c><c>F </c><c>     18.99800000</c><c>      7.00000000</c><c>  PAW_PBE F 08Apr2002                   </c></rc>
   </set>
  </array>
 </atominfo>
 <structure name="initialpos" >
  <crystal>
   <varray name="basis" >
    <v>       5.73591900       0.00000000      -0.79026700 </v>
    <v>       0.00000000       4.78544200       0.00000000 </v>
    <v>       0.00000000       0.00000000      10.88396600 </v>
   </varray>
   <i name="volume">    298.75297805 </i>
   <varray name="rec_basis" >
    <v>       0.17433998       0.00000000       0.00000000 </v>
    <v>       0.00000000       0.20896711       0.00000000 </v>
    <v>       0.01265854       0.00000000       0.09187827 </v>
   </varray>
  </crystal>
  <varray name="positions" >
   <v>       0.24699400       0.24850600       0.74623300 </v>
   <v>       0.24699400       0.75149400       0.24623300 </v>
   <v>       0.51485700       0.24497600       0.49879200 </v>
   <v>       0.51485700       0.75502400       0.99879200 </v>
   <v>       0.75373900       0.23127500       0.26486200 </v>
   <v>       0.75373900       0.76872500       0.76486200 </v>
   <v>       0.99045900       0.24137200       0.99652900 </v>
   <v>       0.99045900       0.75862800       0.49652900 </v>
   <v>       0.77857200       0.05847800       0.41725200 </v>
   <v>       0.77857200       0.94152200       0.91725200 </v>
   <v>       0.01370000       0.05755600       0.18278600 </v>
   <v>       0.01370000       0.94244400       0.68278600 </v>
   <v>       0.22224900       0.44944100       0.57080400 </v>
   <v>       0.22224900       0.55055900       0.07080400 </v>
   <v>       0.27923300       0.05174700       0.92203700 </v>
   <v>       0.27923300       0.94825300       0.42203700 </v>
   <v>       0.48187500       0.45353000       0.31584000 </v>
   <v>       0.48187500       0.54647000       0.81584000 </v>
   <v>       0.52253600       0.03560000       0.67416600 </v>
   <v>       0.52253600       0.96440000       0.17416600 </v>
   <v>       0.72235300       0.44302000       0.09109400 </v>
   <v>       0.72235300       0.55698000       0.59109400 </v>
   <v>       0.97343300       0.45650500       0.81960400 </v>
   <v>       0.97343300       0.54349500       0.31960400 </v>
  </varray>
 </structure>
 <calculation>
  <scstep>
   <time name="diag">    1.24    1.88</time>
   <time name="diis">    0.12    0.21</time>
   <time name="orth">    0.10    0.11</time>
   <time name="total">    2.45    3.45</time>
   <energy>
    <i name="alphaZ">    634.09262729 </i>
    <i name="ewald"> -10612.72848518 </i>
    <i name="hartreedc">  -4389.93247659 </i>
    <i name="XCdc">    595.48706791 </i>
    <i name="pawpsdc">  12680.77512887 </i>
    <i name="pawaedc"> -12817.41364524 </i>
    <i name="eentropy">     -0.09651234 </i>
    <i name="bandstr">   1174.40473548 </i>
    <i name="atom">  14851.27451460 </i>
    <i name="e_fr_energy">   2115.86295480 </i>
    <i name="e_wo_entrp">   2115.95946714 </i>
    <i name="e_0_energy">   2115.89512558 </i>
   </energy>
  </scstep>
  <scstep>
   <time name="diag">    0.11    0.20</time>
   <time name="diis">    0.09    0.18</time>
   <time name="orth">    0.01    0.02</time>
   <time name="total">    0.22    0.40</time>
   <energy>
    <i name="e_fr_energy">    654.10600613 </i>
    <i name="e_wo_entrp">    654.16781194 </i>
    <i name="e_0_energy">    654.12660807 </i>
   </energy>
  </scstep>
  <scstep>
   <time name="diag">    0.22    0.30</time>
   <time name="diis">    0.14    0.18</time>
   <time name="orth">    0.12    0.20</time>
   <time name="total">    0.49    0.68</time>
   <energy>
    <i name="e_fr_energy">    222.97102171 </i>
    <i name="e_wo_entrp">    223.22472549 </i>
    <i name="e_0_energy">    223.05558963 </i>
   </energy>
  </scstep>
  <scstep>
   <time name="diag">    0.18    0.28</time>
   <time name="diis">    0.14    0.18</time>
   <time name="orth">    0.06    0.08</time>
   <time name="total">    0.38    0.54</time>
   <energy>
    <i name="e_fr_energy">     38.02482943 </i>
    <i name="e_wo_entrp">     37.96865819 </i>
    <i name="e_0_energy">     38.00610568 </i>
   </energy>
  </scstep>
  <scstep>
   <time name="diag">    0.18    0.26</time>
   <time name="diis">    0.18    0.18</time>
   <time name="orth">    0.08    0.08</time>
   <time name="total">    0.44    0.52</time>
   <energy>
    <i name="e_fr_energy">    -65.61439277 </i>
    <i name="e_wo_entrp">    -65.56681180 </i>
    <i name="e_0_energy">    -65.59853244 </i>
   </energy>
  </scstep>
  <scstep>
   <time name="diag">    0.20    0.20</time>
   <time name="diis">    0.18    0.18</time>
   <time name="orth">    0.08    0.08</time>
   <time name="total">    0.46    0.46</time>
   <energy>
    <i name="e_fr_energy">   -112.49256935 </i>
    <i name="e_wo_entrp">   -112.47249638 </i>
    <i name="e_0_energy">   -112.48587836 </i>
   </energy>
  </scstep>
  <scstep>
   <time name="diag">    0.20    0.20</time>
   <time name="diis">    0.18    0.18</time>
   <time name="orth">    0.08    0.08</time>
   <time name="total">    0.46    0.46</time>
   <energy>
    <i name="e_fr_energy">   -136.31192944 </i>
    <i name="e_wo_entrp">   -136.33326320 </i>
    <i name="e_0_energy">   -136.31904070 </i>
   </energy>
  </scstep>
  <scstep>
   <time name="diag">    0.20    0.20</time>
   <time name="diis">    0.17    0.18</time>
   <time name="orth">    0.03    0.03</time>
   <time name="total">    0.40    0.41</time>
   <energy>
    <i name="e_fr_energy">   -145.97822744 </i>
    <i name="e_wo_entrp">   -146.01832645 </i>
    <i name="e_0_energy">   -145.99159378 </i>
   </energy>
  </scstep>
  <scstep>
   <time name="diag">    0.08    0.08</time>
   <time name="diis">    0.58    0.58</time>
   <time name="orth">    0.02    0.02</time>
   <time name="total">    0.68    0.69</time>
   <energy>
    <i name="e_fr_energy">   -155.52751088 </i>
    <i name="e_wo_entrp">   -155.57663125 </i>
    <i name="e_0_energy">   -155.54388433 </i>
   </energy>
  </scstep>
  <scstep>
   <time name="diag">    0.06    0.07</time>
   <time name="diis">    0.58    0.58</time>
   <time name="orth">    0.02    0.02</time>
   <time name="total">    0.68    0.68</time>
   <energy>
    <i name="e_fr_energy">   -155.69732156 </i>
    <i name="e_wo_entrp">   -155.72423171 </i>
    <i name="e_0_energy">   -155.70629161 </i>
   </energy>
  </scstep>
  <scstep>
   <time name="diag">    0.06    0.06</time>
   <time name="diis">    0.54    0.54</time>
   <time name="orth">    0.03    0.03</time>
   <time name="total">    0.63    0.63</time>
   <energy>
    <i name="e_fr_energy">   -155.87957755 </i>
    <i name="e_wo_entrp">   -155.89947932 </i>
    <i name="e_0_energy">   -155.88621147 </i>
   </energy>
  </scstep>
  <scstep>
   <time name="diag">    0.07    0.07</time>
   <time name="diis">    0.44    0.44</time>
   <time name="orth">    0.02    0.02</time>
   <time name="total">    0.62    0.62</time>
   <energy>
    <i name="e_fr_energy">   -156.01186322 </i>
    <i name="e_wo_entrp">   -156.03876205 </i>
    <i name="e_0_energy">   -156.02082949 </i>
   </energy>
  </scstep>
  <scstep>
   <time name="diag">    0.08    0.08</time>
   <time name="diis">    0.41    0.41</time>
   <time name="orth">    0.02    0.02</time>
   <time name="total">    0.82    0.82</time>
   <energy>
    <i name="e_fr_energy">   -150.00603615 </i>
    <i name="e_wo_entrp">   -150.07389156 </i>
    <i name="e_0_energy">   -150.02865462 </i>
   </energy>
  </scstep>
  <scstep>
   <time name="diag">    0.07    0.07</time>
   <time name="diis">    0.43    0.44</time>
   <time name="orth">    0.02    0.02</time>
   <time name="total">    0.62    0.62</time>
   <energy>
    <i name="e_fr_energy">   -179.24532231 </i>
    <i name="e_wo_entrp">   -179.23416166 </i>
    <i name="e_0_energy">   -179.24160210 </i>
   </energy>
  </scstep>
  <scstep>
   <time name="diag">    0.07    0.07</time>
   <time name="diis">    0.37    0.37</time>
   <time name="orth">    0.02    0.02</time>
   <time name="total">    0.55    0.55</time>
   <energy>
    <i name="e_fr_energy">   -136.69439479 </i>
    <i name="e_wo_entrp">   -136.58211021 </i>
    <i name="e_0_energy">   -136.65696660 </i>
   </energy>
  </scstep>
  <scstep>
   <time name="diag">    0.03    0.03</time>
   <time name="diis">    0.38    0.38</time>
   <time name="orth">    0.02    0.02</time>
   <time name="total">    0.51    0.51</time>
   <energy>
    <i name="e_fr_energy">   -153.10349943 </i>
    <i name="e_wo_entrp">   -152.97568864 </i>
    <i name="e_0_energy">   -153.06089583 </i>
   </energy>
  </scstep>
  <scstep>
   <time name="diag">    0.07    0.07</time>
   <time name="diis">    0.47    0.47</time>
   <time name="orth">    0.06    0.06</time>
   <time name="total">    0.71    0.71</time>
   <energy>
    <i name="e_fr_energy">   -158.54103027 </i>
    <i name="e_wo_entrp">   -158.43918753 </i>
    <i name="e_0_energy">   -158.50708269 </i>
   </energy>
  </scstep>
  <scstep>
   <time name="diag">    0.08    0.08</time>
   <time name="diis">    0.34    0.34</time>
   <time name="orth">    0.01    0.01</time>
   <time name="total">    0.55    0.55</time>
   <energy>
    <i name="e_fr_energy">   -142.91572429 </i>
    <i name="e_wo_entrp">   -142.91001273 </i>
    <i name="e_0_energy">   -142.91382044 </i>
   </energy>
  </scstep>
  <scstep>
   <time name="diag">    0.06    0.06</time>
   <time name="diis">    0.22    0.38</time>
   <time name="orth">    0.01    0.02</time>
   <time name="total">    0.37    0.55</time>
   <energy>
    <i name="e_fr_energy">   -142.81189496 </i>
    <i name="e_wo_entrp">   -142.79584164 </i>
    <i name="e_0_energy">   -142.80654386 </i>
   </energy>
  </scstep>
  <scstep>
   <time name="diag">    0.04    0.08</time>
   <time name="diis">    0.20    0.35</time>
   <time name="orth">    0.01    0.01</time>
   <time name="total">    0.33    0.59</time>
   <energy>
    <i name="e_fr_energy">   -153.86940896 </i>
    <i name="e_wo_entrp">   -153.78897265 </i>
    <i name="e_0_energy">   -153.84259686 </i>
   </energy>
  </scstep>
  <scstep>
   <time name="diag">    0.05    0.10</time>
   <time name="diis">    0.19    0.39</time>
   <time name="orth">    0.03    0.06</time>
   <time name="total">    0.34    0.69</time>
   <energy>
    <i name="e_fr_energy">   -141.94397702 </i>
    <i name="e_wo_entrp">   -141.95341215 </i>
    <i name="e_0_energy">   -141.94712206 </i>
   </energy>
  </scstep>
  <scstep>
   <time name="diag">    0.06    0.08</time>
   <time name="diis">    0.25    0.30</time>
   <time name="orth">    0.02    0.02</time>
   <time name="total">    0.41    0.55</time>
   <energy>
    <i name="e_fr_energy">   -138.44984610 </i>
    <i name="e_wo_entrp">   -138.46811791 </i>
    <i name="e_0_energy">   -138.45593670 </i>
   </energy>
  </scstep>
  <scstep>
   <time name="diag">    0.06    0.07</time>
   <time name="diis">    0.38    0.44</time>
   <time name="orth">    0.07    0.07</time>
   <time name="total">    0.60    0.69</time>
   <energy>
    <i name="e_fr_energy">   -133.88145322 </i>
    <i name="e_wo_entrp">   -133.86650944 </i>
    <i name="e_0_energy">   -133.87647196 </i>
   </energy>
  </scstep>
  <scstep>
   <time name="diag">    0.06    0.07</time>
   <time name="diis">    0.27    0.36</time>
   <time name="orth">    0.01    0.01</time>
   <time name="total">    0.42    0.53</time>
   <energy>
    <i name="e_fr_energy">   -134.69032742 </i>
    <i name="e_wo_entrp">   -134.71466151 </i>
    <i name="e_0_energy">   -134.69843878 </i>
   </energy>
  </scstep>
  <scstep>
   <time name="diag">    0.07    0.08</time>
   <time name="diis">    0.26    0.38</time>
   <time name="orth">    0.04    0.07</time>
   <time name="total">    0.43    0.62</time>
   <energy>
    <i name="e_fr_energy">   -132.76717083 </i>
    <i name="e_wo_entrp">   -132.75757961 </i>
    <i name="e_0_energy">   -132.76397376 </i>
   </energy>
  </scstep>
  <scstep>
   <time name="diag">    0.09    0.13</time>
   <time name="diis">    0.25    0.35</time>
   <time name="orth">    0.02    0.02</time>
   <time name="total">    0.44    0.60</time>
   <energy>
    <i name="e_fr_energy">   -132.36409786 </i>
    <i name="e_wo_entrp">   -132.35640873 </i>
    <i name="e_0_energy">   -132.36153481 </i>
   </energy>
  </scstep>
  <scstep>
   <time name="diag">    0.05    0.08</time>
   <time name="diis">    0.30    0.40</time>
   <time name="orth">    0.02    0.02</time>
   <time name="total">    0.45    0.61</time>
   <energy>
    <i name="e_fr_energy">   -132.36049163 </i>
    <i name="e_wo_entrp">   -132.36203554 </i>
    <i name="e_0_energy">   -132.36100627 </i>
   </energy>
  </scstep>
  <scstep>
   <time name="diag">    0.06    0.08</time>
   <time name="diis">    0.32    0.43</time>
   <time name="orth">    0.03    0.05</time>
   <time name="total">    0.60    0.81</time>
   <energy>
    <i name="e_fr_energy">   -132.40142310 </i>
    <i name="e_wo_entrp">   -132.39322175 </i>
    <i name="e_0_energy">   -132.39868932 </i>
   </energy>
  </scstep>
  <scstep>
   <time name="diag">    0.08    0.12</time>
   <time name="diis">    0.26    0.32</time>
   <time name="orth">    0.05    0.08</time>
   <time name="total">    0.48    0.70</time>
   <energy>
    <i name="e_fr_energy">   -132.50647419 </i>
    <i name="e_wo_entrp">   -132.51468589 </i>
    <i name="e_0_energy">   -132.50921142 </i>
   </energy>
  </scstep>
  <scstep>
   <time name="diag">    0.06    0.06</time>
   <time name="diis">    0.36    0.36</time>
   <time name="orth">    0.01    0.01</time>
   <time name="total">    0.53    0.53</time>
   <energy>
    <i name="e_fr_energy">   -132.48150827 </i>
    <i name="e_wo_entrp">   -132.49169944 </i>
    <i name="e_0_energy">   -132.48490533 </i>
   </energy>
  </scstep>
  <scstep>
   <time name="diag">    0.06    0.06</time>
   <time name="diis">    0.39    0.39</time>
   <time name="orth">    0.02    0.02</time>
   <time name="total">    0.62    0.62</time>
   <energy>
    <i name="e_fr_energy">   -132.49729662 </i>
    <i name="e_wo_entrp">   -132.50493836 </i>
    <i name="e_0_energy">   -132.49984387 </i>
   </energy>
  </scstep>
  <scstep>
   <time name="diag">    0.08    0.08</time>
   <time name="diis">    0.33    0.33</time>
   <time name="orth">    0.08    0.08</time>
   <time name="total">    0.59    0.59</time>
   <energy>
    <i name="e_fr_energy">   -132.49002483 </i>
    <i name="e_wo_entrp">   -132.49907344 </i>
    <i name="e_0_energy">   -132.49304103 </i>
   </energy>
  </scstep>
  <scstep>
   <time name="diag">    0.06    0.06</time>
   <time name="diis">    0.32    0.32</time>
   <time name="orth">    0.02    0.02</time>
   <time name="total">    0.48    0.48</time>
   <energy>
    <i name="e_fr_energy">   -132.49423281 </i>
    <i name="e_wo_entrp">   -132.50864764 </i>
    <i name="e_0_energy">   -132.49903775 </i>
   </energy>
  </scstep>
  <scstep>
   <time name="diag">    0.03    0.04</time>
   <time name="diis">    0.23    0.23</time>
   <time name="orth">    0.01    0.01</time>
   <time name="total">    0.32    0.33</time>
   <energy>
    <i name="e_fr_energy">   -132.49215691 </i>
    <i name="e_wo_entrp">   -132.50545574 </i>
    <i name="e_0_energy">   -132.49658985 </i>
   </energy>
  </scstep>
  <scstep>
   <time name="diag">    0.03    0.03</time>
   <time name="diis">    0.33    0.33</time>
   <time name="orth">    0.01    0.01</time>
   <time name="total">    0.43    0.43</time>
   <energy>
    <i name="e_fr_energy">   -132.49521398 </i>
    <i name="e_wo_entrp">   -132.50966994 </i>
    <i name="e_0_energy">   -132.50003263 </i>
   </energy>
  </scstep>
  <scstep>
   <time name="diag">    0.04    0.04</time>
   <time name="diis">    0.18    0.19</time>
   <time name="orth">    0.01    0.01</time>
   <time name="total">    0.29    0.29</time>
   <energy>
    <i name="e_fr_energy">   -132.49448875 </i>
    <i name="e_wo_entrp">   -132.50711216 </i>
    <i name="e_0_energy">   -132.49869656 </i>
   </energy>
  </scstep>
  <scstep>
   <time name="diag">    0.03    0.03</time>
   <time name="diis">    0.18    0.18</time>
   <time name="orth">    0.01    0.01</time>
   <time name="total">    0.29    0.29</time>
   <energy>
    <i name="e_fr_energy">   -132.49566042 </i>
    <i name="e_wo_entrp">   -132.50989063 </i>
    <i name="e_0_energy">   -132.50040382 </i>
   </energy>
  </scstep>
  <scstep>
   <time name="diag">    0.04    0.04</time>
   <time name="diis">    0.22    0.22</time>
   <time name="orth">    0.01    0.01</time>
   <time name="total">    0.32    0.32</time>
   <energy>
    <i name="e_fr_energy">   -132.49578235 </i>
    <i name="e_wo_entrp">   -132.50948458 </i>
    <i name="e_0_energy">   -132.50034976 </i>
   </energy>
  </scstep>
  <scstep>
   <time name="diag">    0.05    0.05</time>
   <time name="diis">    0.27    0.27</time>
   <time name="orth">    0.02    0.02</time>
   <time name="total">    0.39    0.39</time>
   <energy>
    <i name="e_fr_energy">   -132.49622878 </i>
    <i name="e_wo_entrp">   -132.51012564 </i>
    <i name="e_0_energy">   -132.50086107 </i>
   </energy>
  </scstep>
  <scstep>
   <time name="diag">    0.03    0.03</time>
   <time name="diis">    0.18    0.18</time>
   <time name="orth">    0.04    0.04</time>
   <time name="total">    0.29    0.29</time>
   <energy>
    <i name="alphaZ">    634.09262729 </i>
    <i name="ewald"> -10612.72848518 </i>
    <i name="hartreedc">  -4468.67978260 </i>
    <i name="XCdc">    604.67845468 </i>
    <i name="pawpsdc">  14866.15560501 </i>
    <i name="pawaedc"> -15006.83136528 </i>
    <i name="eentropy">      0.01388992 </i>
    <i name="bandstr">  -1000.47160298 </i>
    <i name="atom">  14851.27451460 </i>
    <i name="e_fr_energy">   -132.49614454 </i>
    <i name="e_wo_entrp">   -132.51003446 </i>
    <i name="e_0_energy">   -132.50077451 </i>
   </energy>
  </scstep>
  <structure>
   <crystal>
    <varray name="basis" >
     <v>       5.73591900       0.00000000      -0.79026700 </v>
     <v>       0.00000000       4.78544200       0.00000000 </v>
     <v>       0.00000000       0.00000000      10.88396600 </v>
    </varray>
    <i name="volume">    298.75297805 </i>
    <varray name="rec_basis" >
     <v>       0.17433998       0.00000000       0.00000000 </v>
     <v>       0.00000000       0.20896711       0.00000000 </v>
     <v>       0.01265854       0.00000000       0.09187827 </v>
    </varray>
   </crystal>
   <varray name="positions" >
    <v>       0.24699400       0.24850600       0.74623300 </v>
    <v>       0.24699400       0.75149400       0.24623300 </v>
    <v>       0.51485700       0.24497600       0.49879200 </v>
    <v>       0.51485700       0.75502400       0.99879200 </v>
    <v>       0.75373900       0.23127500       0.26486200 </v>
    <v>       0.75373900       0.76872500       0.76486200 </v>
    <v>       0.99045900       0.24137200       0.99652900 </v>
    <v>       0.99045900       0.75862800       0.49652900 </v>
    <v>       0.77857200       0.05847800       0.41725200 </v>
    <v>       0.77857200       0.94152200       0.91725200 </v>
    <v>       0.01370000       0.05755600       0.18278600 </v>
    <v>       0.01370000       0.94244400       0.68278600 </v>
    <v>       0.22224900       0.44944100       0.57080400 </v>
    <v>       0.22224900       0.55055900       0.07080400 </v>
    <v>       0.27923300       0.05174700       0.92203700 </v>
    <v>       0.27923300       0.94825300       0.42203700 </v>
    <v>       0.48187500       0.45353000       0.31584000 </v>
    <v>       0.48187500       0.54647000       0.81584000 </v>
    <v>       0.52253600       0.03560000       0.67416600 </v>
    <v>       0.52253600       0.96440000       0.17416600 </v>
    <v>       0.72235300       0.44302000       0.09109400 </v>
    <v>       0.72235300       0.55698000       0.59109400 </v>
    <v>       0.97343300       0.45650500       0.81960400 </v>
    <v>       0.97343300       0.54349500       0.31960400 </v>
   </varray>
  </structure>
  <varray name="forces" >
   <v>       0.15757308      -0.02743993      -0.24641868 </v>
   <v>       0.15798560       0.02774287      -0.24608742 </v>
   <v>       0.92777805      -0.73969315      -0.80563170 </v>
   <v>       0.92932072       0.73953704      -0.80553713 </v>
   <v>       0.12956860       0.27010857      -0.19529592 </v>
   <v>       0.12940803      -0.27242661      -0.19510314 </v>
   <v>      -0.89928169      -1.23969435      -0.67012200 </v>
   <v>      -0.89739653       1.23742448      -0.66864113 </v>
   <v>      -0.45923072      -0.17542206       1.36182527 </v>
   <v>      -0.45985942       0.17851142       1.36056637 </v>
   <v>       0.27377995      -0.38578241       0.01782034 </v>
   <v>       0.27463541       0.38457639       0.01728646 </v>
   <v>       0.04646278      -0.18261999       0.27898860 </v>
   <v>       0.04582588       0.18222898       0.27610771 </v>
   <v>      -0.23689075       0.26872797      -0.04418965 </v>
   <v>      -0.23639616      -0.26835292      -0.03999505 </v>
   <v>      -0.24140276      -0.10343530       0.58773804 </v>
   <v>      -0.24223684       0.10461583       0.58668492 </v>
   <v>      -0.30832443       0.67932482       0.15934417 </v>
   <v>      -0.31054922      -0.67788628       0.16113508 </v>
   <v>       0.20746756       0.05395094      -0.89266326 </v>
   <v>       0.20828712      -0.05360205      -0.89111668 </v>
   <v>       0.40087805      -0.39677519       0.44709842 </v>
   <v>       0.40259769       0.39638091       0.44620636 </v>
  </varray>
  <varray name="stress" >
   <v>    -243.42550170      -0.12897705      20.85318133 </v>
   <v>      -0.12897641    -260.37830794       0.00203934 </v>
   <v>      20.85318170       0.00204184    -289.47899113 </v>
  </varray>
  <energy>
   <i name="e_fr_energy">   -132.49614454 </i>
   <i name="e_wo_entrp">   -132.50077451 </i>
   <i name="e_0_energy">      0.01388992 </i>
  </energy>
  <time name="totalsc">   22.32   26.04</time>
  <eigenvalues>
   <array>
    <dimension dim="1">band</dimension>
    <dimension dim="2">kpoint</dimension>
    <dimension dim="3">spin</dimension>
    <field>eigene</field>
    <field>occ</field>
    <set>
     <set comment="spin 1">
      <set comment="kpoint 1">
       <r>  -22.6720    1.0000 </r>
       <r>  -22.5951    1.0000 </r>
       <r>  -22.3472    1.0000 </r>
       <r>  -22.3093    1.0000 </r>
       <r>  -22.2945    1.0000 </r>
       <r>  -22.2647    1.0000 </r>
       <r>  -22.2060    1.0000 </r>
       <r>  -22.1751    1.0000 </r>
       <r>  -22.1340    1.0000 </r>
       <r>  -22.1154    1.0000 </r>
       <r>  -21.9469    1.0000 </r>
       <r>  -21.9439    1.0000 </r>
       <r>  -21.8437    1.0000 </r>
       <r>  -21.8416    1.0000 </r>
       <r>  -16.7232    1.0000 </r>
       <r>  -16.7164    1.0000 </r>
       <r>   -6.1124    1.0000 </r>
       <r>   -5.7666    1.0000 </r>
       <r>   -5.3393    1.0000 </r>
       <r>   -5.2126    1.0000 </r>
       <r>   -5.1743    1.0000 </r>
       <r>   -5.0330    1.0000 </r>
       <r>   -4.9857    1.0000 </r>
       <r>   -4.9197    1.0000 </r>
       <r>   -4.8662    1.0000 </r>
       <r>   -4.8075    1.0000 </r>
       <r>   -4.7037    1.0000 </r>
       <r>   -4.5636    1.0000 </r>
       <r>   -4.5497    1.0000 </r>
       <r>   -4.5439    1.0000 </r>
       <r>   -4.4030    1.0000 </r>
       <r>   -4.3822    1.0000 </r>
       <r>   -4.3417    1.0000 </r>
       <r>   -4.2836    1.0000 </r>
       <r>   -4.2728    1.0000 </r>
       <r>   -4.2369    1.0000 </r>
       <r>   -4.1952    1.0000 </r>
       <r>   -4.1720    1.0000 </r>
       <r>   -4.0229    1.0000 </r>
       <r>   -4.0155    1.0000 </r>
       <r>   -3.9908    1.0000 </r>
       <r>   -3.9301    1.0000 </r>
       <r>   -3.9228    1.0000 </r>
       <r>   -3.8701    1.0000 </r>
       <r>   -3.7117    1.0000 </r>
       <r>   -3.6303    1.0000 </r>
       <r>   -3.4300    1.0000 </r>
       <r>   -3.4035    1.0000 </r>
       <r>   -3.3209    1.0000 </r>
       <r>   -3.2444    1.0000 </r>
       <r>   -3.0680    1.0000 </r>
       <r>   -3.0190    1.0000 </r>
       <r>   -2.9650    1.0000 </r>
       <r>   -2.9561    1.0000 </r>
       <r>   -2.7968    1.0000 </r>
       <r>   -2.7409    1.0000 </r>
       <r>   -2.7051    1.0000 </r>
       <r>   -2.6706    1.0000 </r>
       <r>   -2.4796    1.0000 </r>
       <r>   -2.4319    1.0000 </r>
       <r>   -2.3675    1.0000 </r>
       <r>   -2.2837    1.0000 </r>
       <r>   -1.5669    1.0000 </r>
       <r>   -1.5520    1.0000 </r>
       <r>    0.9137    1.0000 </r>
       <r>    0.9251    1.0000 </r>
       <r>    1.0004    1.0000 </r>
       <r>    1.0069    1.0001 </r>
       <r>    1.0443    1.0001 </r>
       <r>    1.0463    1.0002 </r>
       <r>    1.0681    1.0003 </r>
       <r>    1.1052    1.0007 </r>
       <r>    1.1668    1.0026 </r>
       <r>    1.1866    1.0038 </r>
       <r>    1.2412    1.0097 </r>
       <r>    1.2610    1.0130 </r>
       <r>    1.2992    1.0209 </r>
       <r>    1.3110    1.0236 </r>
       <r>    1.3483    1.0317 </r>
       <r>    1.3979    1.0346 </r>
       <r>    1.4318    1.0234 </r>
       <r>    1.4353    1.0213 </r>
       <r>    1.4753    0.9810 </r>
       <r>    1.5121    0.9119 </r>
       <r>    1.5390    0.8402 </r>
       <r>    1.5599    0.7725 </r>
       <r>    1.5794    0.7014 </r>
       <r>    1.6620    0.3607 </r>
       <r>    1.6651    0.3483 </r>
       <r>    1.8042   -0.0074 </r>
       <r>    1.8763   -0.0354 </r>
       <r>    1.9265   -0.0281 </r>
       <r>    1.9612   -0.0202 </r>
       <r>    2.0323   -0.0075 </r>
       <r>    2.1092   -0.0018 </r>
       <r>    2.1134   -0.0016 </r>
       <r>    2.3603   -0.0000 </r>
       <r>    2.4304   -0.0000 </r>
       <r>    2.7773   -0.0000 </r>
       <r>    2.8641   -0.0000 </r>
       <r>    2.9117   -0.0000 </r>
       <r>    2.9391   -0.0000 </r>
       <r>    3.0446   -0.0000 </r>
       <r>    3.2235   -0.0000 </r>
      </set>
     </set>
    </set>
   </array>
  </eigenvalues>
  <separator name="orbital magnetization" >
   <v name="MAGDIPOLOUT">      0.00000000      0.00000000      0.00000000</v>
  </separator>
  <dos>
   <i name="efermi">      1.62857677 </i>
   <total>
    <array>
     <dimension dim="1">gridpoints</dimension>
     <dimension dim="2">spin</dimension>
     <field>energy</field>
     <field>total</field>
     <field>integrated</field>
     <set>
      <set comment="spin 1">
       <r>   -24.6720     0.0000     0.0000 </r>
       <r>   -24.5723     0.0000     0.0000 </r>
       <r>   -24.4727     0.0000     0.0000 </r>
       <r>   -24.3730     0.0000     0.0000 </r>
       <r>   -24.2733    -0.0000    -0.0000 </r>
       <r>   -24.1737    -0.0000    -0.0000 </r>
       <r>   -24.0740    -0.0000    -0.0000 </r>
       <r>   -23.9744    -0.0000    -0.0000 </r>
       <r>   -23.8747    -0.0000    -0.0000 </r>
       <r>   -23.7751    -0.0000    -0.0000 </r>
       <r>   -23.6754    -0.0000    -0.0000 </r>
       <r>   -23.5758    -0.0000    -0.0000 </r>
       <r>   -23.4761    -0.0000    -0.0000 </r>
       <r>   -23.3765    -0.0001    -0.0000 </r>
       <r>   -23.2768    -0.0017    -0.0002 </r>
       <r>   -23.1772    -0.0219    -0.0024 </r>
       <r>   -23.0775    -0.1569    -0.0180 </r>
       <r>   -22.9779    -0.5585    -0.0737 </r>
       <r>   -22.8782    -0.4706    -0.1206 </r>
       <r>   -22.7786     2.9814     0.1766 </r>
       <r>   -22.6789    10.1643     1.1894 </r>
       <r>   -22.5793    13.4940     2.5341 </r>
       <r>   -22.4796    11.5760     3.6877 </r>
       <r>   -22.3800    19.0976     5.5908 </r>
       <r>   -22.2803    38.7314     9.4505 </r>
       <r>   -22.1807    49.5855    14.3917 </r>
       <r>   -22.0810    41.8979    18.5669 </r>
       <r>   -21.9814    31.6557    21.7215 </r>
       <r>   -21.8817    29.5267    24.6639 </r>
       <r>   -21.7821    24.0395    27.0594 </r>
       <r>   -21.6824    10.6310    28.1188 </r>
       <r>   -21.5828     0.7798    28.1965 </r>
       <r>   -21.4831    -1.2847    28.0685 </r>
       <r>   -21.3834    -0.5670    28.0120 </r>
       <r>   -21.2838    -0.1087    28.0012 </r>
       <r>   -21.1841    -0.0112    28.0001 </r>
       <r>   -21.0845    -0.0007    28.0000 </r>
       <r>   -20.9848    -0.0000    28.0000 </r>
       <r>   -20.8852    -0.0000    28.0000 </r>
       <r>   -20.7855    -0.0000    28.0000 </r>
       <r>   -20.6859    -0.0000    28.0000 </r>
       <r>   -20.5862    -0.0000    28.0000 </r>
       <r>   -20.4866     0.0000    28.0000 </r>
       <r>   -20.3869     0.0000    28.0000 </r>
       <r>   -20.2873     0.0000    28.0000 </r>
       <r>   -20.1876     0.0000    28.0000 </r>
       <r>   -20.0880     0.0000    28.0000 </r>
       <r>   -19.9883     0.0000    28.0000 </r>
       <r>   -19.8887     0.0000    28.0000 </r>
       <r>   -19.7890     0.0000    28.0000 </r>
       <r>   -19.6894     0.0000    28.0000 </r>
       <r>   -19.5897     0.0000    28.0000 </r>
       <r>   -19.4901     0.0000    28.0000 </r>
       <r>   -19.3904     0.0000    28.0000 </r>
       <r>   -19.2908     0.0000    28.0000 </r>
       <r>   -19.1911     0.0000    28.0000 </r>
       <r>   -19.0915     0.0000    28.0000 </r>
       <r>   -18.9918     0.0000    28.0000 </r>
       <r>   -18.8922     0.0000    28.0000 </r>
       <r>   -18.7925     0.0000    28.0000 </r>
       <r>   -18.6929     0.0000    28.0000 </r>
       <r>   -18.5932     0.0000    28.0000 </r>
       <r>   -18.4936     0.0000    28.0000 </r>
       <r>   -18.3939    -0.0000    28.0000 </r>
       <r>   -18.2942    -0.0000    28.0000 </r>
       <r>   -18.1946    -0.0000    28.0000 </r>
       <r>   -18.0949    -0.0000    28.0000 </r>
       <r>   -17.9953    -0.0000    28.0000 </r>
       <r>   -17.8956    -0.0000    28.0000 </r>
       <r>   -17.7960    -0.0000    28.0000 </r>
       <r>   -17.6963    -0.0000    28.0000 </r>
       <r>   -17.5967    -0.0000    28.0000 </r>
       <r>   -17.4970    -0.0000    28.0000 </r>
       <r>   -17.3974    -0.0004    28.0000 </r>
       <r>   -17.2977    -0.0065    27.9993 </r>
       <r>   -17.1981    -0.0678    27.9926 </r>
       <r>   -17.0984    -0.3721    27.9555 </r>
       <r>   -16.9988    -0.8355    27.8722 </r>
       <r>   -16.8991     0.8535    27.9573 </r>
       <r>   -16.7995     8.0913    28.7636 </r>
       <r>   -16.6998    15.7836    30.3365 </r>
       <r>   -16.6002    13.4456    31.6763 </r>
       <r>   -16.5005     4.5482    32.1296 </r>
       <r>   -16.4009    -0.3646    32.0932 </r>
       <r>   -16.3012    -0.7004    32.0234 </r>
       <r>   -16.2016    -0.2045    32.0031 </r>
       <r>   -16.1019    -0.0284    32.0002 </r>
       <r>   -16.0023    -0.0022    32.0000 </r>
       <r>   -15.9026    -0.0001    32.0000 </r>
       <r>   -15.8030    -0.0000    32.0000 </r>
       <r>   -15.7033    -0.0000    32.0000 </r>
       <r>   -15.6037    -0.0000    32.0000 </r>
       <r>   -15.5040    -0.0000    32.0000 </r>
       <r>   -15.4044    -0.0000    32.0000 </r>
       <r>   -15.3047     0.0000    32.0000 </r>
       <r>   -15.2050     0.0000    32.0000 </r>
       <r>   -15.1054     0.0000    32.0000 </r>
       <r>   -15.0057     0.0000    32.0000 </r>
       <r>   -14.9061     0.0000    32.0000 </r>
       <r>   -14.8064     0.0000    32.0000 </r>
       <r>   -14.7068     0.0000    32.0000 </r>
       <r>   -14.6071     0.0000    32.0000 </r>
       <r>   -14.5075     0.0000    32.0000 </r>
       <r>   -14.4078     0.0000    32.0000 </r>
       <r>   -14.3082     0.0000    32.0000 </r>
       <r>   -14.2085     0.0000    32.0000 </r>
       <r>   -14.1089     0.0000    32.0000 </r>
       <r>   -14.0092     0.0000    32.0000 </r>
       <r>   -13.9096     0.0000    32.0000 </r>
       <r>   -13.8099     0.0000    32.0000 </r>
       <r>   -13.7103     0.0000    32.0000 </r>
       <r>   -13.6106     0.0000    32.0000 </r>
       <r>   -13.5110     0.0000    32.0000 </r>
       <r>   -13.4113     0.0000    32.0000 </r>
       <r>   -13.3117     0.0000    32.0000 </r>
       <r>   -13.2120     0.0000    32.0000 </r>
       <r>   -13.1124     0.0000    32.0000 </r>
       <r>   -13.0127     0.0000    32.0000 </r>
       <r>   -12.9131     0.0000    32.0000 </r>
       <r>   -12.8134     0.0000    32.0000 </r>
       <r>   -12.7138     0.0000    32.0000 </r>
       <r>   -12.6141     0.0000    32.0000 </r>
       <r>   -12.5145     0.0000    32.0000 </r>
       <r>   -12.4148     0.0000    32.0000 </r>
       <r>   -12.3151     0.0000    32.0000 </r>
       <r>   -12.2155     0.0000    32.0000 </r>
       <r>   -12.1158     0.0000    32.0000 </r>
       <r>   -12.0162     0.0000    32.0000 </r>
       <r>   -11.9165     0.0000    32.0000 </r>
       <r>   -11.8169     0.0000    32.0000 </r>
       <r>   -11.7172     0.0000    32.0000 </r>
       <r>   -11.6176     0.0000    32.0000 </r>
       <r>   -11.5179     0.0000    32.0000 </r>
       <r>   -11.4183     0.0000    32.0000 </r>
       <r>   -11.3186     0.0000    32.0000 </r>
       <r>   -11.2190     0.0000    32.0000 </r>
       <r>   -11.1193     0.0000    32.0000 </r>
       <r>   -11.0197     0.0000    32.0000 </r>
       <r>   -10.9200     0.0000    32.0000 </r>
       <r>   -10.8204     0.0000    32.0000 </r>
       <r>   -10.7207     0.0000    32.0000 </r>
       <r>   -10.6211     0.0000    32.0000 </r>
       <r>   -10.5214     0.0000    32.0000 </r>
       <r>   -10.4218     0.0000    32.0000 </r>
       <r>   -10.3221     0.0000    32.0000 </r>
       <r>   -10.2225     0.0000    32.0000 </r>
       <r>   -10.1228     0.0000    32.0000 </r>
       <r>   -10.0232     0.0000    32.0000 </r>
       <r>    -9.9235     0.0000    32.0000 </r>
       <r>    -9.8239     0.0000    32.0000 </r>
       <r>    -9.7242     0.0000    32.0000 </r>
       <r>    -9.6246     0.0000    32.0000 </r>
       <r>    -9.5249     0.0000    32.0000 </r>
       <r>    -9.4253     0.0000    32.0000 </r>
       <r>    -9.3256     0.0000    32.0000 </r>
       <r>    -9.2259     0.0000    32.0000 </r>
       <r>    -9.1263     0.0000    32.0000 </r>
       <r>    -9.0266     0.0000    32.0000 </r>
       <r>    -8.9270     0.0000    32.0000 </r>
       <r>    -8.8273     0.0000    32.0000 </r>
       <r>    -8.7277     0.0000    32.0000 </r>
       <r>    -8.6280     0.0000    32.0000 </r>
       <r>    -8.5284     0.0000    32.0000 </r>
       <r>    -8.4287     0.0000    32.0000 </r>
       <r>    -8.3291     0.0000    32.0000 </r>
       <r>    -8.2294     0.0000    32.0000 </r>
       <r>    -8.1298     0.0000    32.0000 </r>
       <r>    -8.0301     0.0000    32.0000 </r>
       <r>    -7.9305     0.0000    32.0000 </r>
       <r>    -7.8308     0.0000    32.0000 </r>
       <r>    -7.7312    -0.0000    32.0000 </r>
       <r>    -7.6315    -0.0000    32.0000 </r>
       <r>    -7.5319    -0.0000    32.0000 </r>
       <r>    -7.4322    -0.0000    32.0000 </r>
       <r>    -7.3326    -0.0000    32.0000 </r>
       <r>    -7.2329    -0.0000    32.0000 </r>
       <r>    -7.1333    -0.0000    32.0000 </r>
       <r>    -7.0336    -0.0000    32.0000 </r>
       <r>    -6.9340    -0.0000    32.0000 </r>
       <r>    -6.8343    -0.0000    32.0000 </r>
       <r>    -6.7347    -0.0010    31.9999 </r>
       <r>    -6.6350    -0.0128    31.9986 </r>
       <r>    -6.5354    -0.0951    31.9891 </r>
       <r>    -6.4357    -0.3392    31.9553 </r>
       <r>    -6.3361    -0.2273    31.9327 </r>
       <r>    -6.2364     2.0623    32.1382 </r>
       <r>    -6.1367     6.3491    32.7709 </r>
       <r>    -6.0371     7.5527    33.5235 </r>
       <r>    -5.9374     4.8635    34.0082 </r>
       <r>    -5.8378     4.9430    34.5008 </r>
       <r>    -5.7381     7.4575    35.2439 </r>
       <r>    -5.6385     5.6584    35.8078 </r>
       <r>    -5.5388     1.3839    35.9457 </r>
       <r>    -5.4392     1.9911    36.1441 </r>
       <r>    -5.3395     9.0342    37.0444 </r>
       <r>    -5.2399    17.4050    38.7788 </r>
       <r>    -5.1402    22.0741    40.9786 </r>
       <r>    -5.0406    25.0777    43.4776 </r>
       <r>    -4.9409    29.5943    46.4267 </r>
       <r>    -4.8413    30.5678    49.4728 </r>
       <r>    -4.7416    25.6539    52.0293 </r>
       <r>    -4.6420    23.4244    54.3636 </r>
       <r>    -4.5423    28.2935    57.1831 </r>
       <r>    -4.4427    35.4368    60.7144 </r>
       <r>    -4.3430    43.9859    65.0977 </r>
       <r>    -4.2434    49.4657    70.0270 </r>
       <r>    -4.1437    44.9241    74.5038 </r>
       <r>    -4.0441    40.7853    78.5681 </r>
       <r>    -3.9444    43.0303    82.8561 </r>
       <r>    -3.8448    37.3456    86.5777 </r>
       <r>    -3.7451    23.7364    88.9431 </r>
       <r>    -3.6455    15.4643    90.4841 </r>
       <r>    -3.5458    13.9070    91.8700 </r>
       <r>    -3.4462    18.1095    93.6746 </r>
       <r>    -3.3465    24.1509    96.0813 </r>
       <r>    -3.2468    22.9165    98.3650 </r>
       <r>    -3.1472    18.9830   100.2566 </r>
       <r>    -3.0475    23.3809   102.5866 </r>
       <r>    -2.9479    29.7503   105.5513 </r>
       <r>    -2.8482    29.6822   108.5091 </r>
       <r>    -2.7486    29.6058   111.4594 </r>
       <r>    -2.6489    28.0938   114.2590 </r>
       <r>    -2.5493    22.3386   116.4851 </r>
       <r>    -2.4496    22.2809   118.7054 </r>
       <r>    -2.3500    25.3877   121.2353 </r>
       <r>    -2.2503    19.9176   123.2202 </r>
       <r>    -2.1507     8.4751   124.0647 </r>
       <r>    -2.0510     0.7882   124.1433 </r>
       <r>    -1.9514    -1.2273   124.0210 </r>
       <r>    -1.8517    -1.2727   123.8941 </r>
       <r>    -1.7521     0.2556   123.9196 </r>
       <r>    -1.6524     6.8447   124.6017 </r>
       <r>    -1.5528    15.1588   126.1123 </r>
       <r>    -1.4531    14.3761   127.5449 </r>
       <r>    -1.3535     5.6726   128.1102 </r>
       <r>    -1.2538    -0.0474   128.1055 </r>
       <r>    -1.1542    -0.7622   128.0295 </r>
       <r>    -1.0545    -0.2540   128.0042 </r>
       <r>    -0.9549    -0.0388   128.0003 </r>
       <r>    -0.8552    -0.0032   128.0000 </r>
       <r>    -0.7556    -0.0002   128.0000 </r>
       <r>    -0.6559    -0.0000   128.0000 </r>
       <r>    -0.5563    -0.0000   128.0000 </r>
       <r>    -0.4566    -0.0000   128.0000 </r>
       <r>    -0.3570    -0.0000   128.0000 </r>
       <r>    -0.2573    -0.0000   128.0000 </r>
       <r>    -0.1576    -0.0000   128.0000 </r>
       <r>    -0.0580    -0.0000   128.0000 </r>
       <r>     0.0417    -0.0000   128.0000 </r>
       <r>     0.1413    -0.0000   128.0000 </r>
       <r>     0.2410    -0.0004   128.0000 </r>
       <r>     0.3406    -0.0072   127.9992 </r>
       <r>     0.4403    -0.0806   127.9912 </r>
       <r>     0.5399    -0.5139   127.9400 </r>
       <r>     0.6396    -1.6838   127.7722 </r>
       <r>     0.7392    -1.4977   127.6230 </r>
       <r>     0.8389     7.8549   128.4057 </r>
       <r>     0.9385    31.4065   131.5354 </r>
       <r>     1.0382    56.1183   137.1277 </r>
       <r>     1.1378    64.4984   143.5551 </r>
       <r>     1.2375    61.8517   149.7187 </r>
       <r>     1.3371    62.3394   155.9309 </r>
       <r>     1.4368    66.2304   162.5309 </r>
       <r>     1.5364    65.3876   169.0469 </r>
       <r>     1.6361    53.0480   174.3332 </r>
       <r>     1.7357    35.0323   177.8242 </r>
       <r>     1.8354    27.0014   180.5150 </r>
       <r>     1.9350    31.6524   183.6692 </r>
       <r>     2.0347    35.7673   187.2334 </r>
       <r>     2.1343    29.7906   190.2021 </r>
       <r>     2.2340    18.0313   191.9990 </r>
       <r>     2.3336    12.8335   193.2778 </r>
       <r>     2.4333    13.8810   194.6611 </r>
       <r>     2.5329     9.7993   195.6376 </r>
       <r>     2.6326     3.5061   195.9870 </r>
       <r>     2.7322     7.0317   196.6877 </r>
       <r>     2.8319    20.3706   198.7177 </r>
       <r>     2.9316    30.3366   201.7408 </r>
       <r>     3.0312    27.1521   204.4465 </r>
       <r>     3.1309    17.2563   206.1662 </r>
       <r>     3.2305    10.6724   207.2297 </r>
       <r>     3.3302     6.4504   207.8725 </r>
       <r>     3.4298     2.0946   208.0812 </r>
       <r>     3.5295    -0.2505   208.0562 </r>
       <r>     3.6291    -0.4148   208.0149 </r>
       <r>     3.7288    -0.1287   208.0021 </r>
       <r>     3.8284    -0.0192   208.0002 </r>
       <r>     3.9281    -0.0016   208.0000 </r>
       <r>     4.0277    -0.0001   208.0000 </r>
       <r>     4.1274    -0.0000   208.0000 </r>
       <r>     4.2270    -0.0000   208.0000 </r>
       <r>     4.3267    -0.0000   208.0000 </r>
       <r>     4.4263    -0.0000   208.0000 </r>
       <r>     4.5260    -0.0000   208.0000 </r>
       <r>     4.6256     0.0000   208.0000 </r>
       <r>     4.7253     0.0000   208.0000 </r>
       <r>     4.8249     0.0000   208.0000 </r>
       <r>     4.9246     0.0000   208.0000 </r>
       <r>     5.0242     0.0000   208.0000 </r>
       <r>     5.1239     0.0000   208.0000 </r>
       <r>     5.2235     0.0000   208.0000 </r>
      </set>
     </set>
    </array>
   </total>
  </dos>
 </calculation>
 <structure name="finalpos" >
  <crystal>
   <varray name="basis" >
    <v>       5.73591900       0.00000000      -0.79026700 </v>
    <v>       0.00000000       4.78544200       0.00000000 </v>
    <v>       0.00000000       0.00000000      10.88396600 </v>
   </varray>
   <i name="volume">    298.75297805 </i>
   <varray name="rec_basis" >
    <v>       0.17433998       0.00000000       0.00000000 </v>
    <v>       0.00000000       0.20896711       0.00000000 </v>
    <v>       0.01265854       0.00000000       0.09187827 </v>
   </varray>
  </crystal>
  <varray name="positions" >
   <v>       0.24699400       0.24850600       0.74623300 </v>
   <v>       0.24699400       0.75149400       0.24623300 </v>
   <v>       0.51485700       0.24497600       0.49879200 </v>
   <v>       0.51485700       0.75502400       0.99879200 </v>
   <v>       0.75373900       0.23127500       0.26486200 </v>
   <v>       0.75373900       0.76872500       0.76486200 </v>
   <v>       0.99045900       0.24137200       0.99652900 </v>
   <v>       0.99045900       0.75862800       0.49652900 </v>
   <v>       0.77857200       0.05847800       0.41725200 </v>
   <v>       0.77857200       0.94152200       0.91725200 </v>
   <v>       0.01370000       0.05755600       0.18278600 </v>
   <v>       0.01370000       0.94244400       0.68278600 </v>
   <v>       0.22224900       0.44944100       0.57080400 </v>
   <v>       0.22224900       0.55055900       0.07080400 </v>
   <v>       0.27923300       0.05174700       0.92203700 </v>
   <v>       0.27923300       0.94825300       0.42203700 </v>
   <v>       0.48187500       0.45353000       0.31584000 </v>
   <v>       0.48187500       0.54647000       0.81584000 </v>
   <v>       0.52253600       0.03560000       0.67416600 </v>
   <v>       0.52253600       0.96440000       0.17416600 </v>
   <v>       0.72235300       0.44302000       0.09109400 </v>
   <v>       0.72235300       0.55698000       0.59109400 </v>
   <v>       0.97343300       0.45650500       0.81960400 </v>
   <v>       0.97343300       0.54349500       0.31960400 </v>
  </varray>
 </structure>
</modeling>
