<?xml version="1.0" encoding="ISO-8859-1"?>
<modeling>
 <generator>
  <i name="program" type="string">vasp </i>
  <i name="version" type="string">5.3.5  </i>
  <i name="subversion" type="string">31Mar14 (build Aug 29 2014 19:41:47) complex                          parallel </i>
  <i name="platform" type="string">LinuxIFC </i>
  <i name="date" type="string">2019 04 11 </i>
  <i name="time" type="string">15:18:00 </i>
 </generator>
 <incar>
  <i type="string" name="SYSTEM"> Fe4OF8_var_31</i>
  <i type="int" name="ISTART">     0</i>
  <i type="string" name="PREC">normal</i>
  <i type="string" name="ALGO"> VeryFast</i>
  <i type="int" name="ISPIN">     1</i>
  <i type="int" name="ICHARG">     2</i>
  <i type="int" name="NELM">   300</i>
  <i type="int" name="ISYM">     0</i>
  <i type="logical" name="LWAVE"> F  </i>
  <i type="int" name="NELM">   300</i>
 </incar>
 <kpoints>
  <generation param="Gamma">
   <v type="int" name="divisions">       1        1        1 </v>
   <v name="usershift">      0.00000000       0.00000000       0.00000000 </v>
   <v name="genvec1">      1.00000000       0.00000000       0.00000000 </v>
   <v name="genvec2">     -0.00000000       1.00000000      -0.00000000 </v>
   <v name="genvec3">     -0.00000000       0.00000000       1.00000000 </v>
   <v name="shift">      0.00000000       0.00000000       0.00000000 </v>
  </generation>
  <varray name="kpointlist" >
   <v>       0.00000000       0.00000000       0.00000000 </v>
  </varray>
  <varray name="weights" >
   <v>       1.00000000 </v>
  </varray>
 </kpoints>
 <parameters>
  <separator name="general" >
   <i type="string" name="SYSTEM">Fe4OF8_var_31</i>
   <i type="logical" name="LCOMPAT"> F  </i>
  </separator>
  <separator name="electronic" >
   <i type="string" name="PREC">normal</i>
   <i name="ENMAX">    400.00000000</i>
   <i name="ENAUG">    613.61400000</i>
   <i name="EDIFF">      0.00010000</i>
   <i type="int" name="IALGO">    48</i>
   <i type="int" name="IWAVPR">    10</i>
   <i type="int" name="NBANDS">   228</i>
   <i name="NELECT">    376.00000000</i>
   <i type="int" name="TURBO">     0</i>
   <i type="int" name="IRESTART">     0</i>
   <i type="int" name="NREBOOT">     0</i>
   <i type="int" name="NMIN">     0</i>
   <i name="EREF">      0.00000000</i>
   <separator name="electronic smearing" >
    <i type="int" name="ISMEAR">     1</i>
    <i name="SIGMA">      0.20000000</i>
    <i name="KSPACING">      0.50000000</i>
    <i type="logical" name="KGAMMA"> T  </i>
   </separator>
   <separator name="electronic projectors" >
    <i type="logical" name="LREAL"> F  </i>
    <v name="ROPT">      0.00000000      0.00000000      0.00000000</v>
    <i type="int" name="LMAXPAW">  -100</i>
    <i type="int" name="LMAXMIX">     2</i>
    <i type="logical" name="NLSPLINE"> F  </i>
   </separator>
   <separator name="electronic startup" >
    <i type="int" name="ISTART">     0</i>
    <i type="int" name="ICHARG">     2</i>
    <i type="int" name="INIWAV">     1</i>
   </separator>
   <separator name="electronic spin" >
    <i type="int" name="ISPIN">     1</i>
    <i type="logical" name="LNONCOLLINEAR"> F  </i>
    <v name="MAGMOM">      1.00000000      1.00000000      1.00000000      1.00000000      1.00000000      1.00000000      1.00000000      1.00000000      1.00000000      1.00000000      1.00000000      1.00000000      1.00000000      1.00000000      1.00000000      1.00000000      1.00000000      1.00000000      1.00000000      1.00000000
      1.00000000      1.00000000      1.00000000      1.00000000      1.00000000      1.00000000      1.00000000      1.00000000      1.00000000      1.00000000      1.00000000      1.00000000      1.00000000      1.00000000      1.00000000      1.00000000      1.00000000      1.00000000      1.00000000      1.00000000
      1.00000000      1.00000000      1.00000000      1.00000000      1.00000000      1.00000000      1.00000000      1.00000000      1.00000000      1.00000000      1.00000000      1.00000000</v>
    <i name="NUPDOWN">     -1.00000000</i>
    <i type="logical" name="LSORBIT"> F  </i>
    <v name="SAXIS">      0.00000000      0.00000000      1.00000000</v>
    <i type="logical" name="LSPIRAL"> F  </i>
    <v name="QSPIRAL">      0.00000000      0.00000000      0.00000000</v>
    <i type="logical" name="LZEROZ"> F  </i>
   </separator>
   <separator name="electronic exchange-correlation" >
    <i type="logical" name="LASPH"> F  </i>
    <i type="logical" name="LMETAGGA"> F  </i>
   </separator>
   <separator name="electronic convergence" >
    <i type="int" name="NELM">   300</i>
    <i type="int" name="NELMDL">   -12</i>
    <i type="int" name="NELMIN">     2</i>
    <i name="ENINI">    400.00000000</i>
    <separator name="electronic convergence detail" >
     <i type="logical" name="LDIAG"> T  </i>
     <i type="logical" name="LSUBROT"> F  </i>
     <i name="WEIMIN">      0.00000000</i>
     <i name="EBREAK">      0.00000011</i>
     <i name="DEPER">      0.30000000</i>
     <i type="int" name="NRMM">     4</i>
     <i name="TIME">      0.40000000</i>
    </separator>
   </separator>
   <separator name="electronic mixer" >
    <i name="AMIX">      0.40000000</i>
    <i name="BMIX">      1.00000000</i>
    <i name="AMIN">      0.10000000</i>
    <i name="AMIX_MAG">      1.60000000</i>
    <i name="BMIX_MAG">      1.00000000</i>
    <separator name="electronic mixer details" >
     <i type="int" name="IMIX">     4</i>
     <i type="int" name="MAXMIX">   -45</i>
     <i name="WC">    100.00000000</i>
     <i type="int" name="INIMIX">     1</i>
     <i type="int" name="MIXPRE">     1</i>
     <i type="int" name="MREMOVE">     5</i>
    </separator>
   </separator>
   <separator name="electronic dipolcorrection" >
    <i type="logical" name="LDIPOL"> F  </i>
    <i type="logical" name="LMONO"> F  </i>
    <i type="int" name="IDIPOL">     0</i>
    <i name="EPSILON">      1.00000000</i>
    <v name="DIPOL">   -100.00000000   -100.00000000   -100.00000000</v>
    <i name="EFIELD">      0.00000000</i>
   </separator>
  </separator>
  <separator name="grids" >
   <i type="int" name="NGX">    48</i>
   <i type="int" name="NGY">    28</i>
   <i type="int" name="NGZ">    80</i>
   <i type="int" name="NGXF">    96</i>
   <i type="int" name="NGYF">    56</i>
   <i type="int" name="NGZF">   160</i>
   <i type="logical" name="ADDGRID"> F  </i>
  </separator>
  <separator name="ionic" >
   <i type="int" name="NSW">     0</i>
   <i type="int" name="IBRION">    -1</i>
   <i type="int" name="ISIF">     2</i>
   <i name="PSTRESS">      0.00000000</i>
   <i name="EDIFFG">      0.00100000</i>
   <i type="int" name="NFREE">     0</i>
   <i name="POTIM">      0.50000000</i>
   <i name="SMASS">     -3.00000000</i>
   <i name="SCALEE">      1.00000000</i>
  </separator>
  <separator name="ionic md" >
   <i name="TEBEG">      0.00010000</i>
   <i name="TEEND">      0.00010000</i>
   <i type="int" name="NBLOCK">     1</i>
   <i type="int" name="KBLOCK">     1</i>
   <i type="int" name="NPACO">   256</i>
   <i name="APACO">     16.00000000</i>
  </separator>
  <separator name="symmetry" >
   <i type="int" name="ISYM">     0</i>
   <i name="SYMPREC">      0.00001000</i>
  </separator>
  <separator name="dos" >
   <i type="logical" name="LORBIT"> F  </i>
   <v name="RWIGS">     -1.00000000     -1.00000000     -1.00000000</v>
   <i type="int" name="NEDOS">   301</i>
   <i name="EMIN">     10.00000000</i>
   <i name="EMAX">    -10.00000000</i>
   <i name="EFERMI">      0.00000000</i>
  </separator>
  <separator name="writing" >
   <i type="int" name="NWRITE">     2</i>
   <i type="logical" name="LWAVE"> F  </i>
   <i type="logical" name="LCHARG"> T  </i>
   <i type="logical" name="LPARD"> F  </i>
   <i type="logical" name="LVTOT"> F  </i>
   <i type="logical" name="LVHAR"> F  </i>
   <i type="logical" name="LELF"> F  </i>
   <i type="logical" name="LOPTICS"> F  </i>
   <v name="STM">      0.00000000      0.00000000      0.00000000      0.00000000      0.00000000      0.00000000      0.00000000</v>
  </separator>
  <separator name="performance" >
   <i type="int" name="NPAR">     4</i>
   <i type="int" name="NSIM">     4</i>
   <i type="int" name="NBLK">    -1</i>
   <i type="logical" name="LPLANE"> T  </i>
   <i type="logical" name="LSCALAPACK"> T  </i>
   <i type="logical" name="LSCAAWARE"> F  </i>
   <i type="logical" name="LSCALU"> F  </i>
   <i type="logical" name="LASYNC"> F  </i>
   <i type="logical" name="LORBITALREAL"> F  </i>
  </separator>
  <separator name="miscellaneous" >
   <i type="int" name="IDIOT">     3</i>
   <i type="logical" name="LMUSIC"> F  </i>
   <v name="POMASS">     55.84700000     16.00000000     18.99800000</v>
   <v name="DARWINR">      0.00000000      0.00000000      0.00000000</v>
   <v name="DARWINV">      1.00000000      1.00000000      1.00000000</v>
   <i type="logical" name="LCORR"> T  </i>
  </separator>
  <i type="logical" name="GGA_COMPAT"> T  </i>
  <i type="logical" name="LBERRY"> F  </i>
  <i type="int" name="ICORELEVEL">     0</i>
  <i type="logical" name="LDAU"> F  </i>
  <i type="int" name="I_CONSTRAINED_M">     0</i>
  <separator name="electronic exchange-correlation" >
   <i type="string" name="GGA">--</i>
   <i type="int" name="VOSKOWN">     0</i>
   <i type="logical" name="LHFCALC"> F  </i>
   <i type="string" name="PRECFOCK"></i>
   <i type="logical" name="LSYMGRAD"> F  </i>
   <i type="logical" name="LHFONE"> F  </i>
   <i type="logical" name="LRHFCALC"> F  </i>
   <i type="logical" name="LTHOMAS"> F  </i>
   <i type="logical" name="LMODELHF"> F  </i>
   <i name="ENCUT4O">     -1.00000000</i>
   <i type="int" name="EXXOEP">     0</i>
   <i type="int" name="FOURORBIT">     0</i>
   <i name="AEXX">      0.00000000</i>
   <i name="HFALPHA">      0.00000000</i>
   <i name="MCALPHA">      0.00000000</i>
   <i name="ALDAX">      1.00000000</i>
   <i name="AGGAX">      1.00000000</i>
   <i name="ALDAC">      1.00000000</i>
   <i name="AGGAC">      1.00000000</i>
   <i type="int" name="NKREDX">     1</i>
   <i type="int" name="NKREDY">     1</i>
   <i type="int" name="NKREDZ">     1</i>
   <i type="logical" name="SHIFTRED"> F  </i>
   <i type="logical" name="ODDONLY"> F  </i>
   <i type="logical" name="EVENONLY"> F  </i>
   <i type="int" name="LMAXFOCK">     0</i>
   <i type="int" name="NMAXFOCKAE">     0</i>
   <i type="logical" name="LFOCKAEDFT"> F  </i>
   <i name="HFSCREEN">      0.00000000</i>
   <i name="HFSCREENC">      0.00000000</i>
   <i type="int" name="NBANDSGWLOW">     0</i>
  </separator>
  <separator name="vdW DFT" >
   <i type="logical" name="LUSE_VDW"> F  </i>
   <i name="Zab_VDW">     -0.84910000</i>
   <i name="PARAM1">      0.12340000</i>
   <i name="PARAM2">      1.00000000</i>
   <i name="PARAM3">      0.00000000</i>
  </separator>
  <separator name="model GW" >
   <i type="int" name="MODEL_GW">     0</i>
   <i name="MODEL_EPS0">      8.69476215</i>
   <i name="MODEL_ALPHA">      1.00000000</i>
  </separator>
  <separator name="linear response parameters" >
   <i type="logical" name="LEPSILON"> F  </i>
   <i type="logical" name="LRPA"> F  </i>
   <i type="logical" name="LNABLA"> F  </i>
   <i type="logical" name="LVEL"> F  </i>
   <i type="int" name="KINTER">     0</i>
   <i name="CSHIFT">      0.10000000</i>
   <i name="OMEGAMAX">     -1.00000000</i>
   <i name="DEG_THRESHOLD">      0.00200000</i>
  </separator>
  <separator name="orbital magnetization" >
   <i type="logical" name="NUCIND"> F  </i>
   <v name="MAGPOS">      0.00000000      0.00000000      0.00000000</v>
   <i type="logical" name="LNICSALL"> T  </i>
   <i type="logical" name="ORBITALMAG"> F  </i>
   <i type="logical" name="LMAGBLOCH"> F  </i>
   <i type="logical" name="LCHIMAG"> F  </i>
   <i type="logical" name="LGAUGE"> T  </i>
   <i type="int" name="MAGATOM">     0</i>
   <v name="MAGDIPOL">      0.00000000      0.00000000      0.00000000</v>
   <v name="AVECCONST">      0.00000000      0.00000000      0.00000000</v>
  </separator>
  <separator name="response functions" >
   <i type="logical" name="LADDER"> F  </i>
   <i type="logical" name="LFXC"> F  </i>
   <i type="logical" name="LHARTREE"> T  </i>
   <i type="int" name="IBSE">     0</i>
   <i type="logical" name="LTCTE"> F  </i>
   <i type="logical" name="LTETE"> F  </i>
   <i type="logical" name="LTRIPLET"> F  </i>
   <i type="logical" name="LFXCEPS"> F  </i>
   <i type="logical" name="LFXHEG"> F  </i>
   <i type="logical" name="L2ORDER"> F  </i>
   <i type="logical" name="LUSEW"> F  </i>
   <i name="ENCUTGW">     -2.00000000</i>
   <i name="ENCUTGWSOFT">     -2.00000000</i>
   <i name="ENCUTLF">     -1.00000000</i>
   <i type="int" name="LMAXMP2">    -1</i>
   <i name="SCISSOR">      0.00000000</i>
   <i type="int" name="NOMEGA">     0</i>
   <i type="int" name="NOMEGAR">     0</i>
   <i type="int" name="NBANDSGW">    -1</i>
   <i type="int" name="NBANDSO">    -1</i>
   <i type="int" name="NBANDSV">    -1</i>
   <i type="int" name="NELM">   300</i>
   <i type="int" name="DIM">     3</i>
   <i type="int" name="ANTIRES">     0</i>
   <i name="OMEGAMAX">    -30.00000000</i>
   <i name="OMEGAMIN">    -30.00000000</i>
   <i name="OMEGATL">   -200.00000000</i>
   <i type="int" name="OMEGAGRID">     0</i>
   <i name="CSHIFT">     -0.10000000</i>
   <i type="logical" name="SELFENERGY"> F  </i>
   <i type="logical" name="LSPECTRAL"> F  </i>
   <i type="logical" name="ODDONLYGW"> F  </i>
   <i type="logical" name="EVENONLYGW"> F  </i>
   <i type="int" name="NKREDLFX">     1</i>
   <i type="int" name="NKREDLFY">     1</i>
   <i type="int" name="NKREDLFZ">     1</i>
   <i type="int" name="MAXMEM">  1800</i>
   <i type="int" name="TELESCOPE">     0</i>
   <i type="int" name="TAUPAR">     1</i>
  </separator>
  <separator name="External order field" >
   <i name="OFIELD_KAPPA">      0.00000000</i>
   <v name="OFIELD_K">      0.00000000      0.00000000      0.00000000</v>
   <i name="OFIELD_Q6_NEAR">      0.00000000</i>
   <i name="OFIELD_Q6_FAR">      0.00000000</i>
   <i name="OFIELD_A">      0.00000000</i>
  </separator>
 </parameters>
 <atominfo>
  <atoms>      52 </atoms>
  <types>       3 </types>
  <array name="atoms" >
   <dimension dim="1">ion</dimension>
   <field type="string">element</field>
   <field type="int">atomtype</field>
   <set>
    <rc><c>Fe</c><c>   1</c></rc>
    <rc><c>Fe</c><c>   1</c></rc>
    <rc><c>Fe</c><c>   1</c></rc>
    <rc><c>Fe</c><c>   1</c></rc>
    <rc><c>Fe</c><c>   1</c></rc>
    <rc><c>Fe</c><c>   1</c></rc>
    <rc><c>Fe</c><c>   1</c></rc>
    <rc><c>Fe</c><c>   1</c></rc>
    <rc><c>Fe</c><c>   1</c></rc>
    <rc><c>Fe</c><c>   1</c></rc>
    <rc><c>Fe</c><c>   1</c></rc>
    <rc><c>Fe</c><c>   1</c></rc>
    <rc><c>Fe</c><c>   1</c></rc>
    <rc><c>Fe</c><c>   1</c></rc>
    <rc><c>Fe</c><c>   1</c></rc>
    <rc><c>Fe</c><c>   1</c></rc>
    <rc><c>O </c><c>   2</c></rc>
    <rc><c>O </c><c>   2</c></rc>
    <rc><c>O </c><c>   2</c></rc>
    <rc><c>O </c><c>   2</c></rc>
    <rc><c>F </c><c>   3</c></rc>
    <rc><c>F </c><c>   3</c></rc>
    <rc><c>F </c><c>   3</c></rc>
    <rc><c>F </c><c>   3</c></rc>
    <rc><c>F </c><c>   3</c></rc>
    <rc><c>F </c><c>   3</c></rc>
    <rc><c>F </c><c>   3</c></rc>
    <rc><c>F </c><c>   3</c></rc>
    <rc><c>F </c><c>   3</c></rc>
    <rc><c>F </c><c>   3</c></rc>
    <rc><c>F </c><c>   3</c></rc>
    <rc><c>F </c><c>   3</c></rc>
    <rc><c>F </c><c>   3</c></rc>
    <rc><c>F </c><c>   3</c></rc>
    <rc><c>F </c><c>   3</c></rc>
    <rc><c>F </c><c>   3</c></rc>
    <rc><c>F </c><c>   3</c></rc>
    <rc><c>F </c><c>   3</c></rc>
    <rc><c>F </c><c>   3</c></rc>
    <rc><c>F </c><c>   3</c></rc>
    <rc><c>F </c><c>   3</c></rc>
    <rc><c>F </c><c>   3</c></rc>
    <rc><c>F </c><c>   3</c></rc>
    <rc><c>F </c><c>   3</c></rc>
    <rc><c>F </c><c>   3</c></rc>
    <rc><c>F </c><c>   3</c></rc>
    <rc><c>F </c><c>   3</c></rc>
    <rc><c>F </c><c>   3</c></rc>
    <rc><c>F </c><c>   3</c></rc>
    <rc><c>F </c><c>   3</c></rc>
    <rc><c>F </c><c>   3</c></rc>
    <rc><c>F </c><c>   3</c></rc>
   </set>
  </array>
  <array name="atomtypes" >
   <dimension dim="1">type</dimension>
   <field type="int">atomspertype</field>
   <field type="string">element</field>
   <field>mass</field>
   <field>valence</field>
   <field type="string">pseudopotential</field>
   <set>
    <rc><c>  16</c><c>Fe</c><c>     55.84700000</c><c>      8.00000000</c><c>  PAW_PBE Fe 06Sep2000                  </c></rc>
    <rc><c>   4</c><c>O </c><c>     16.00000000</c><c>      6.00000000</c><c>  PAW_PBE O 08Apr2002                   </c></rc>
    <rc><c>  32</c><c>F </c><c>     18.99800000</c><c>      7.00000000</c><c>  PAW_PBE F 08Apr2002                   </c></rc>
   </set>
  </array>
 </atominfo>
 <structure name="initialpos" >
  <crystal>
   <varray name="basis" >
    <v>       9.40119100       0.00000000      -0.06486500 </v>
    <v>       0.00000000       5.35946700       0.00000000 </v>
    <v>       0.00000000      -0.03087800      14.95565100 </v>
   </varray>
   <i name="volume">    753.54605297 </i>
   <varray name="rec_basis" >
    <v>       0.10636950       0.00000000       0.00000000 </v>
    <v>       0.00000266       0.18658572       0.00038523 </v>
    <v>       0.00046134       0.00000000       0.06686436 </v>
   </varray>
  </crystal>
  <varray name="positions" >
   <v>       0.16411200       0.48397600       0.17995900 </v>
   <v>       0.16411200       0.50755200       0.67995900 </v>
   <v>       0.66411200       0.98397600       0.17995900 </v>
   <v>       0.66411200       0.01602400       0.68788600 </v>
   <v>       0.17533200       0.47285200       0.97303200 </v>
   <v>       0.17533200       0.52937200       0.47303200 </v>
   <v>       0.67533200       0.97285200       0.97303200 </v>
   <v>       0.67533200       0.02714800       0.47303200 </v>
   <v>       0.33162900       0.02941400       0.82240100 </v>
   <v>       0.33162900       0.96820000       0.32240100 </v>
   <v>       0.83162900       0.52941400       0.82240100 </v>
   <v>       0.83162900       0.47940100       0.32240100 </v>
   <v>       0.33361900       0.00432000       0.51711500 </v>
   <v>       0.33361900       0.99568000       0.01711500 </v>
   <v>       0.83361900       0.50432000       0.51711500 </v>
   <v>       0.83361900       0.49568000       0.01711500 </v>
   <v>       0.30926400       0.26800400       0.92544800 </v>
   <v>       0.30183700       0.73259200       0.42544800 </v>
   <v>       0.80926400       0.76740800       0.92544800 </v>
   <v>       0.80926400       0.23259200       0.42544800 </v>
   <v>       0.00386100       0.36884200       0.24394900 </v>
   <v>       0.00800300       0.63115800       0.74394900 </v>
   <v>       0.50386100       0.86884200       0.24394900 </v>
   <v>       0.50386100       0.13115800       0.73723600 </v>
   <v>       0.02591400       0.39537700       0.57915900 </v>
   <v>       0.02186400       0.60462300       0.07915900 </v>
   <v>       0.52591400       0.89275200       0.57915900 </v>
   <v>       0.52591400       0.10462300       0.07915900 </v>
   <v>       0.17611800       0.20941000       0.08350500 </v>
   <v>       0.17611800       0.78583000       0.58579500 </v>
   <v>       0.67611800       0.71417000       0.08350500 </v>
   <v>       0.67611800       0.28583000       0.58350500 </v>
   <v>       0.17983500       0.20344500       0.73945400 </v>
   <v>       0.18147400       0.79655500       0.23945400 </v>
   <v>       0.68147400       0.70344500       0.73945400 </v>
   <v>       0.68147400       0.29655500       0.23945400 </v>
   <v>       0.18900300       0.20461000       0.42366300 </v>
   <v>       0.18900300       0.79814000       0.92366300 </v>
   <v>       0.68900300       0.70314100       0.42366300 </v>
   <v>       0.68900300       0.29814000       0.92366300 </v>
   <v>       0.29399000       0.34686800       0.57827500 </v>
   <v>       0.29347700       0.65313200       0.07827500 </v>
   <v>       0.79347700       0.84686800       0.57827500 </v>
   <v>       0.79347700       0.15313200       0.07827500 </v>
   <v>       0.30310600       0.30561100       0.24801900 </v>
   <v>       0.30037600       0.69566500       0.74747200 </v>
   <v>       0.80901600       0.80561100       0.24801900 </v>
   <v>       0.80310600       0.19438900       0.74801900 </v>
   <v>       0.49071400       0.13464800       0.42295500 </v>
   <v>       0.49071400       0.86535200       0.92295500 </v>
   <v>       0.98684400       0.63464800       0.43219600 </v>
   <v>       0.99071400       0.36535200       0.92295500 </v>
  </varray>
 </structure>
 <calculation>
  <scstep>
   <time name="diag">    0.58    0.98</time>
   <time name="diis">    1.42    2.00</time>
   <time name="orth">    0.24    0.48</time>
   <time name="total">    2.60    3.90</time>
   <energy>
    <i name="alphaZ">   1136.56246079 </i>
    <i name="ewald"> -19701.12904599 </i>
    <i name="hartreedc"> -12186.15994302 </i>
    <i name="XCdc">   1336.25040142 </i>
    <i name="pawpsdc">  27518.38149996 </i>
    <i name="pawaedc"> -27812.06485035 </i>
    <i name="eentropy">     -0.05461455 </i>
    <i name="bandstr">   2143.75102484 </i>
    <i name="atom">  32340.34786160 </i>
    <i name="e_fr_energy">   4775.88479470 </i>
    <i name="e_wo_entrp">   4775.93940924 </i>
    <i name="e_0_energy">   4775.90299955 </i>
   </energy>
  </scstep>
  <scstep>
   <time name="diag">    0.43    0.65</time>
   <time name="diis">    1.38    1.80</time>
   <time name="orth">    0.22    0.29</time>
   <time name="total">    2.03    2.74</time>
   <energy>
    <i name="e_fr_energy">   1581.38521188 </i>
    <i name="e_wo_entrp">   1581.49051355 </i>
    <i name="e_0_energy">   1581.42031244 </i>
   </energy>
  </scstep>
  <scstep>
   <time name="diag">    0.97    1.40</time>
   <time name="diis">    1.05    1.59</time>
   <time name="orth">    0.17    0.23</time>
   <time name="total">    2.19    3.23</time>
   <energy>
    <i name="e_fr_energy">    552.46707324 </i>
    <i name="e_wo_entrp">    552.22015706 </i>
    <i name="e_0_energy">    552.38476784 </i>
   </energy>
  </scstep>
  <scstep>
   <time name="diag">    0.59    0.77</time>
   <time name="diis">    1.03    1.61</time>
   <time name="orth">    0.29    0.47</time>
   <time name="total">    1.91    2.85</time>
   <energy>
    <i name="e_fr_energy">    124.13956858 </i>
    <i name="e_wo_entrp">    124.23024170 </i>
    <i name="e_0_energy">    124.16979295 </i>
   </energy>
  </scstep>
  <scstep>
   <time name="diag">    0.56    0.83</time>
   <time name="diis">    1.11    1.66</time>
   <time name="orth">    0.16    0.20</time>
   <time name="total">    1.83    2.69</time>
   <energy>
    <i name="e_fr_energy">   -126.49439317 </i>
    <i name="e_wo_entrp">   -126.43359003 </i>
    <i name="e_0_energy">   -126.47412545 </i>
   </energy>
  </scstep>
  <scstep>
   <time name="diag">    0.61    0.97</time>
   <time name="diis">    1.03    1.55</time>
   <time name="orth">    0.19    0.21</time>
   <time name="total">    1.83    2.73</time>
   <energy>
    <i name="e_fr_energy">   -238.79932348 </i>
    <i name="e_wo_entrp">   -238.81926276 </i>
    <i name="e_0_energy">   -238.80596991 </i>
   </energy>
  </scstep>
  <scstep>
   <time name="diag">    0.66    0.75</time>
   <time name="diis">    1.04    1.63</time>
   <time name="orth">    0.18    0.27</time>
   <time name="total">    1.89    2.64</time>
   <energy>
    <i name="e_fr_energy">   -295.17223935 </i>
    <i name="e_wo_entrp">   -295.23842511 </i>
    <i name="e_0_energy">   -295.19430127 </i>
   </energy>
  </scstep>
  <scstep>
   <time name="diag">    0.68    1.06</time>
   <time name="diis">    0.98    1.51</time>
   <time name="orth">    0.08    0.12</time>
   <time name="total">    1.75    2.69</time>
   <energy>
    <i name="e_fr_energy">   -316.52126681 </i>
    <i name="e_wo_entrp">   -316.59723920 </i>
    <i name="e_0_energy">   -316.54659094 </i>
   </energy>
  </scstep>
  <scstep>
   <time name="diag">    0.55    0.91</time>
   <time name="diis">    3.50    4.59</time>
   <time name="orth">    0.33    0.37</time>
   <time name="total">    4.39    5.87</time>
   <energy>
    <i name="e_fr_energy">   -336.56920955 </i>
    <i name="e_wo_entrp">   -336.63983843 </i>
    <i name="e_0_energy">   -336.59275251 </i>
   </energy>
  </scstep>
  <scstep>
   <time name="diag">    0.51    0.64</time>
   <time name="diis">    3.29    4.75</time>
   <time name="orth">    0.20    0.28</time>
   <time name="total">    4.01    5.68</time>
   <energy>
    <i name="e_fr_energy">   -336.97272004 </i>
    <i name="e_wo_entrp">   -337.01333189 </i>
    <i name="e_0_energy">   -336.98625732 </i>
   </energy>
  </scstep>
  <scstep>
   <time name="diag">    0.52    0.81</time>
   <time name="diis">    3.01    4.47</time>
   <time name="orth">    0.21    0.35</time>
   <time name="total">    3.74    5.64</time>
   <energy>
    <i name="e_fr_energy">   -337.29069508 </i>
    <i name="e_wo_entrp">   -337.31536770 </i>
    <i name="e_0_energy">   -337.29891929 </i>
   </energy>
  </scstep>
  <scstep>
   <time name="diag">    0.99    1.79</time>
   <time name="diis">    3.02    3.69</time>
   <time name="orth">    0.08    0.16</time>
   <time name="total">    4.26    5.86</time>
   <energy>
    <i name="e_fr_energy">   -337.41948723 </i>
    <i name="e_wo_entrp">   -337.43690643 </i>
    <i name="e_0_energy">   -337.42529363 </i>
   </energy>
  </scstep>
  <scstep>
   <time name="diag">    0.56    0.88</time>
   <time name="diis">    2.31    3.35</time>
   <time name="orth">    0.15    0.23</time>
   <time name="total">    3.30    4.80</time>
   <energy>
    <i name="e_fr_energy">   -325.90409816 </i>
    <i name="e_wo_entrp">   -325.78772018 </i>
    <i name="e_0_energy">   -325.86530550 </i>
   </energy>
  </scstep>
  <scstep>
   <time name="diag">    0.32    0.39</time>
   <time name="diis">    2.56    3.25</time>
   <time name="orth">    0.11    0.17</time>
   <time name="total">    3.26    4.22</time>
   <energy>
    <i name="e_fr_energy">   -385.10041753 </i>
    <i name="e_wo_entrp">   -384.98214467 </i>
    <i name="e_0_energy">   -385.06099324 </i>
   </energy>
  </scstep>
  <scstep>
   <time name="diag">    0.36    0.50</time>
   <time name="diis">    2.07    3.09</time>
   <time name="orth">    0.15    0.17</time>
   <time name="total">    2.86    4.03</time>
   <energy>
    <i name="e_fr_energy">   -310.22876283 </i>
    <i name="e_wo_entrp">   -310.19486782 </i>
    <i name="e_0_energy">   -310.21746449 </i>
   </energy>
  </scstep>
  <scstep>
   <time name="diag">    0.31    0.53</time>
   <time name="diis">    2.34    3.43</time>
   <time name="orth">    0.16    0.21</time>
   <time name="total">    3.11    4.62</time>
   <energy>
    <i name="e_fr_energy">   -315.27800081 </i>
    <i name="e_wo_entrp">   -315.28675401 </i>
    <i name="e_0_energy">   -315.28091854 </i>
   </energy>
  </scstep>
  <scstep>
   <time name="diag">    0.45    0.69</time>
   <time name="diis">    2.07    3.04</time>
   <time name="orth">    0.15    0.25</time>
   <time name="total">    2.97    4.54</time>
   <energy>
    <i name="e_fr_energy">   -402.27971926 </i>
    <i name="e_wo_entrp">   -402.17081047 </i>
    <i name="e_0_energy">   -402.24341633 </i>
   </energy>
  </scstep>
  <scstep>
   <time name="diag">    0.31    0.45</time>
   <time name="diis">    2.31    3.11</time>
   <time name="orth">    0.12    0.15</time>
   <time name="total">    3.07    4.14</time>
   <energy>
    <i name="e_fr_energy">   -354.30679503 </i>
    <i name="e_wo_entrp">   -354.31724725 </i>
    <i name="e_0_energy">   -354.31027910 </i>
   </energy>
  </scstep>
  <scstep>
   <time name="diag">    0.24    0.45</time>
   <time name="diis">    2.36    3.11</time>
   <time name="orth">    0.09    0.16</time>
   <time name="total">    3.01    4.08</time>
   <energy>
    <i name="e_fr_energy">   -329.19229320 </i>
    <i name="e_wo_entrp">   -329.22290803 </i>
    <i name="e_0_energy">   -329.20249814 </i>
   </energy>
  </scstep>
  <scstep>
   <time name="diag">    0.32    0.53</time>
   <time name="diis">    2.13    2.90</time>
   <time name="orth">    0.10    0.14</time>
   <time name="total">    2.78    3.97</time>
   <energy>
    <i name="e_fr_energy">   -365.37204504 </i>
    <i name="e_wo_entrp">   -365.36799939 </i>
    <i name="e_0_energy">   -365.37069649 </i>
   </energy>
  </scstep>
  <scstep>
   <time name="diag">    0.39    0.50</time>
   <time name="diis">    2.25    3.23</time>
   <time name="orth">    0.14    0.20</time>
   <time name="total">    3.06    4.37</time>
   <energy>
    <i name="e_fr_energy">   -356.11422158 </i>
    <i name="e_wo_entrp">   -356.11980515 </i>
    <i name="e_0_energy">   -356.11608277 </i>
   </energy>
  </scstep>
  <scstep>
   <time name="diag">    0.26    0.35</time>
   <time name="diis">    2.35    3.12</time>
   <time name="orth">    0.16    0.21</time>
   <time name="total">    3.11    4.29</time>
   <energy>
    <i name="e_fr_energy">   -326.24417237 </i>
    <i name="e_wo_entrp">   -326.19760761 </i>
    <i name="e_0_energy">   -326.22865079 </i>
   </energy>
  </scstep>
  <scstep>
   <time name="diag">    0.58    0.87</time>
   <time name="diis">    2.30    3.27</time>
   <time name="orth">    0.12    0.23</time>
   <time name="total">    3.25    4.78</time>
   <energy>
    <i name="e_fr_energy">   -313.22756423 </i>
    <i name="e_wo_entrp">   -313.16009631 </i>
    <i name="e_0_energy">   -313.20507492 </i>
   </energy>
  </scstep>
  <scstep>
   <time name="diag">    0.42    0.68</time>
   <time name="diis">    2.36    2.92</time>
   <time name="orth">    0.15    0.15</time>
   <time name="total">    3.52    4.41</time>
   <energy>
    <i name="e_fr_energy">   -301.76789005 </i>
    <i name="e_wo_entrp">   -301.80100800 </i>
    <i name="e_0_energy">   -301.77892937 </i>
   </energy>
  </scstep>
  <scstep>
   <time name="diag">    0.48    0.61</time>
   <time name="diis">    2.13    3.12</time>
   <time name="orth">    0.08    0.10</time>
   <time name="total">    2.99    4.20</time>
   <energy>
    <i name="e_fr_energy">   -299.37379185 </i>
    <i name="e_wo_entrp">   -299.36733379 </i>
    <i name="e_0_energy">   -299.37163916 </i>
   </energy>
  </scstep>
  <scstep>
   <time name="diag">    0.40    0.47</time>
   <time name="diis">    2.01    3.21</time>
   <time name="orth">    0.14    0.16</time>
   <time name="total">    2.79    4.28</time>
   <energy>
    <i name="e_fr_energy">   -295.16516304 </i>
    <i name="e_wo_entrp">   -295.18825915 </i>
    <i name="e_0_energy">   -295.17286174 </i>
   </energy>
  </scstep>
  <scstep>
   <time name="diag">    0.49    0.90</time>
   <time name="diis">    2.04    3.02</time>
   <time name="orth">    0.17    0.30</time>
   <time name="total">    2.98    4.71</time>
   <energy>
    <i name="e_fr_energy">   -293.95956397 </i>
    <i name="e_wo_entrp">   -293.93193521 </i>
    <i name="e_0_energy">   -293.95035439 </i>
   </energy>
  </scstep>
  <scstep>
   <time name="diag">    0.51    0.84</time>
   <time name="diis">    2.09    3.12</time>
   <time name="orth">    0.16    0.23</time>
   <time name="total">    3.10    4.73</time>
   <energy>
    <i name="e_fr_energy">   -287.20186643 </i>
    <i name="e_wo_entrp">   -287.16144021 </i>
    <i name="e_0_energy">   -287.18839102 </i>
   </energy>
  </scstep>
  <scstep>
   <time name="diag">    0.36    0.52</time>
   <time name="diis">    2.20    3.03</time>
   <time name="orth">    0.09    0.14</time>
   <time name="total">    2.90    4.07</time>
   <energy>
    <i name="e_fr_energy">   -285.82763077 </i>
    <i name="e_wo_entrp">   -285.89483927 </i>
    <i name="e_0_energy">   -285.85003360 </i>
   </energy>
  </scstep>
  <scstep>
   <time name="diag">    0.35    0.47</time>
   <time name="diis">    2.27    3.32</time>
   <time name="orth">    0.17    0.26</time>
   <time name="total">    3.03    4.40</time>
   <energy>
    <i name="e_fr_energy">   -280.38331320 </i>
    <i name="e_wo_entrp">   -280.34461520 </i>
    <i name="e_0_energy">   -280.37041387 </i>
   </energy>
  </scstep>
  <scstep>
   <time name="diag">    0.36    0.50</time>
   <time name="diis">    2.16    3.34</time>
   <time name="orth">    0.13    0.17</time>
   <time name="total">    2.99    4.50</time>
   <energy>
    <i name="e_fr_energy">   -279.23989469 </i>
    <i name="e_wo_entrp">   -279.06573815 </i>
    <i name="e_0_energy">   -279.18184251 </i>
   </energy>
  </scstep>
  <scstep>
   <time name="diag">    0.27    0.40</time>
   <time name="diis">    2.29    3.30</time>
   <time name="orth">    0.07    0.15</time>
   <time name="total">    2.94    4.34</time>
   <energy>
    <i name="e_fr_energy">   -278.28460305 </i>
    <i name="e_wo_entrp">   -278.24562644 </i>
    <i name="e_0_energy">   -278.27161085 </i>
   </energy>
  </scstep>
  <scstep>
   <time name="diag">    0.68    1.14</time>
   <time name="diis">    2.12    3.24</time>
   <time name="orth">    0.11    0.19</time>
   <time name="total">    3.18    5.00</time>
   <energy>
    <i name="e_fr_energy">   -277.56256562 </i>
    <i name="e_wo_entrp">   -277.51117991 </i>
    <i name="e_0_energy">   -277.54543705 </i>
   </energy>
  </scstep>
  <scstep>
   <time name="diag">    0.25    0.39</time>
   <time name="diis">    2.15    3.18</time>
   <time name="orth">    0.17    0.31</time>
   <time name="total">    2.92    4.47</time>
   <energy>
    <i name="e_fr_energy">   -277.58545880 </i>
    <i name="e_wo_entrp">   -277.49516855 </i>
    <i name="e_0_energy">   -277.55536205 </i>
   </energy>
  </scstep>
  <scstep>
   <time name="diag">    0.38    0.64</time>
   <time name="diis">    2.02    3.24</time>
   <time name="orth">    0.17    0.23</time>
   <time name="total">    2.87    4.57</time>
   <energy>
    <i name="e_fr_energy">   -277.53650297 </i>
    <i name="e_wo_entrp">   -277.43945740 </i>
    <i name="e_0_energy">   -277.50415444 </i>
   </energy>
  </scstep>
  <scstep>
   <time name="diag">    0.36    0.46</time>
   <time name="diis">    2.12    2.97</time>
   <time name="orth">    0.15    0.15</time>
   <time name="total">    3.02    4.12</time>
   <energy>
    <i name="e_fr_energy">   -277.47090729 </i>
    <i name="e_wo_entrp">   -277.40366032 </i>
    <i name="e_0_energy">   -277.44849163 </i>
   </energy>
  </scstep>
  <scstep>
   <time name="diag">    0.33    0.56</time>
   <time name="diis">    2.03    3.02</time>
   <time name="orth">    0.19    0.23</time>
   <time name="total">    2.81    4.18</time>
   <energy>
    <i name="e_fr_energy">   -277.34993820 </i>
    <i name="e_wo_entrp">   -277.29282116 </i>
    <i name="e_0_energy">   -277.33089919 </i>
   </energy>
  </scstep>
  <scstep>
   <time name="diag">    0.51    0.64</time>
   <time name="diis">    2.39    3.25</time>
   <time name="orth">    0.13    0.14</time>
   <time name="total">    3.38    4.46</time>
   <energy>
    <i name="e_fr_energy">   -277.40758300 </i>
    <i name="e_wo_entrp">   -277.35071373 </i>
    <i name="e_0_energy">   -277.38862658 </i>
   </energy>
  </scstep>
  <scstep>
   <time name="diag">    0.58    0.82</time>
   <time name="diis">    2.42    3.64</time>
   <time name="orth">    0.14    0.16</time>
   <time name="total">    3.70    5.40</time>
   <energy>
    <i name="e_fr_energy">   -277.04355642 </i>
    <i name="e_wo_entrp">   -277.10184127 </i>
    <i name="e_0_energy">   -277.06298470 </i>
   </energy>
  </scstep>
  <scstep>
   <time name="diag">    0.54    0.65</time>
   <time name="diis">    2.67    3.51</time>
   <time name="orth">    0.24    0.33</time>
   <time name="total">    3.84    5.01</time>
   <energy>
    <i name="e_fr_energy">   -276.93062359 </i>
    <i name="e_wo_entrp">   -276.90636212 </i>
    <i name="e_0_energy">   -276.92253643 </i>
   </energy>
  </scstep>
  <scstep>
   <time name="diag">    0.42    0.70</time>
   <time name="diis">    2.28    3.35</time>
   <time name="orth">    0.13    0.19</time>
   <time name="total">    3.10    4.62</time>
   <energy>
    <i name="e_fr_energy">   -277.15975161 </i>
    <i name="e_wo_entrp">   -277.23480277 </i>
    <i name="e_0_energy">   -277.18476867 </i>
   </energy>
  </scstep>
  <scstep>
   <time name="diag">    0.49    0.60</time>
   <time name="diis">    2.25    3.36</time>
   <time name="orth">    0.13    0.16</time>
   <time name="total">    3.19    4.54</time>
   <energy>
    <i name="e_fr_energy">   -276.87518270 </i>
    <i name="e_wo_entrp">   -276.95289603 </i>
    <i name="e_0_energy">   -276.90108714 </i>
   </energy>
  </scstep>
  <scstep>
   <time name="diag">    0.36    0.40</time>
   <time name="diis">    3.29    3.33</time>
   <time name="orth">    0.21    0.21</time>
   <time name="total">    4.24    4.42</time>
   <energy>
    <i name="e_fr_energy">   -276.84144264 </i>
    <i name="e_wo_entrp">   -276.88679716 </i>
    <i name="e_0_energy">   -276.85656081 </i>
   </energy>
  </scstep>
  <scstep>
   <time name="diag">    0.46    0.46</time>
   <time name="diis">    3.15    3.15</time>
   <time name="orth">    0.11    0.11</time>
   <time name="total">    4.19    4.19</time>
   <energy>
    <i name="e_fr_energy">   -276.77659680 </i>
    <i name="e_wo_entrp">   -276.84623258 </i>
    <i name="e_0_energy">   -276.79980872 </i>
   </energy>
  </scstep>
  <scstep>
   <time name="diag">    0.56    0.56</time>
   <time name="diis">    3.14    3.14</time>
   <time name="orth">    0.15    0.15</time>
   <time name="total">    4.27    4.27</time>
   <energy>
    <i name="e_fr_energy">   -276.77668820 </i>
    <i name="e_wo_entrp">   -276.81069682 </i>
    <i name="e_0_energy">   -276.78802441 </i>
   </energy>
  </scstep>
  <scstep>
   <time name="diag">    0.55    0.56</time>
   <time name="diis">    2.95    2.95</time>
   <time name="orth">    0.18    0.18</time>
   <time name="total">    4.27    4.28</time>
   <energy>
    <i name="e_fr_energy">   -276.76584677 </i>
    <i name="e_wo_entrp">   -276.82662004 </i>
    <i name="e_0_energy">   -276.78610453 </i>
   </energy>
  </scstep>
  <scstep>
   <time name="diag">    0.62    0.62</time>
   <time name="diis">    2.86    2.86</time>
   <time name="orth">    0.16    0.16</time>
   <time name="total">    4.15    4.15</time>
   <energy>
    <i name="e_fr_energy">   -276.77663883 </i>
    <i name="e_wo_entrp">   -276.81995918 </i>
    <i name="e_0_energy">   -276.79107895 </i>
   </energy>
  </scstep>
  <scstep>
   <time name="diag">    0.69    0.69</time>
   <time name="diis">    2.97    2.97</time>
   <time name="orth">    0.16    0.17</time>
   <time name="total">    4.51    4.52</time>
   <energy>
    <i name="e_fr_energy">   -276.76722390 </i>
    <i name="e_wo_entrp">   -276.82785262 </i>
    <i name="e_0_energy">   -276.78743347 </i>
   </energy>
  </scstep>
  <scstep>
   <time name="diag">    0.41    0.41</time>
   <time name="diis">    2.85    2.86</time>
   <time name="orth">    0.25    0.25</time>
   <time name="total">    4.04    4.04</time>
   <energy>
    <i name="e_fr_energy">   -276.76431260 </i>
    <i name="e_wo_entrp">   -276.82212969 </i>
    <i name="e_0_energy">   -276.78358496 </i>
   </energy>
  </scstep>
  <scstep>
   <time name="diag">    0.60    0.60</time>
   <time name="diis">    2.11    2.11</time>
   <time name="orth">    0.26    0.26</time>
   <time name="total">    3.30    3.30</time>
   <energy>
    <i name="e_fr_energy">   -276.76464103 </i>
    <i name="e_wo_entrp">   -276.82653641 </i>
    <i name="e_0_energy">   -276.78527283 </i>
   </energy>
  </scstep>
  <scstep>
   <time name="diag">    0.47    0.47</time>
   <time name="diis">    1.90    1.90</time>
   <time name="orth">    0.12    0.12</time>
   <time name="total">    2.77    2.77</time>
   <energy>
    <i name="alphaZ">   1136.56246079 </i>
    <i name="ewald"> -19701.12904599 </i>
    <i name="hartreedc"> -12337.39244380 </i>
    <i name="XCdc">   1356.61884357 </i>
    <i name="pawpsdc">  32636.43339103 </i>
    <i name="pawaedc"> -32941.19331558 </i>
    <i name="eentropy">      0.06175380 </i>
    <i name="bandstr">  -2767.07424524 </i>
    <i name="atom">  32340.34786160 </i>
    <i name="e_fr_energy">   -276.76473982 </i>
    <i name="e_wo_entrp">   -276.82649362 </i>
    <i name="e_0_energy">   -276.78532442 </i>
   </energy>
  </scstep>
  <structure>
   <crystal>
    <varray name="basis" >
     <v>       9.40119100       0.00000000      -0.06486500 </v>
     <v>       0.00000000       5.35946700       0.00000000 </v>
     <v>       0.00000000      -0.03087800      14.95565100 </v>
    </varray>
    <i name="volume">    753.54605297 </i>
    <varray name="rec_basis" >
     <v>       0.10636950       0.00000000       0.00000000 </v>
     <v>       0.00000266       0.18658572       0.00038523 </v>
     <v>       0.00046134       0.00000000       0.06686436 </v>
    </varray>
   </crystal>
   <varray name="positions" >
    <v>       0.16411200       0.48397600       0.17995900 </v>
    <v>       0.16411200       0.50755200       0.67995900 </v>
    <v>       0.66411200       0.98397600       0.17995900 </v>
    <v>       0.66411200       0.01602400       0.68788600 </v>
    <v>       0.17533200       0.47285200       0.97303200 </v>
    <v>       0.17533200       0.52937200       0.47303200 </v>
    <v>       0.67533200       0.97285200       0.97303200 </v>
    <v>       0.67533200       0.02714800       0.47303200 </v>
    <v>       0.33162900       0.02941400       0.82240100 </v>
    <v>       0.33162900       0.96820000       0.32240100 </v>
    <v>       0.83162900       0.52941400       0.82240100 </v>
    <v>       0.83162900       0.47940100       0.32240100 </v>
    <v>       0.33361900       0.00432000       0.51711500 </v>
    <v>       0.33361900       0.99568000       0.01711500 </v>
    <v>       0.83361900       0.50432000       0.51711500 </v>
    <v>       0.83361900       0.49568000       0.01711500 </v>
    <v>       0.30926400       0.26800400       0.92544800 </v>
    <v>       0.30183700       0.73259200       0.42544800 </v>
    <v>       0.80926400       0.76740800       0.92544800 </v>
    <v>       0.80926400       0.23259200       0.42544800 </v>
    <v>       0.00386100       0.36884200       0.24394900 </v>
    <v>       0.00800300       0.63115800       0.74394900 </v>
    <v>       0.50386100       0.86884200       0.24394900 </v>
    <v>       0.50386100       0.13115800       0.73723600 </v>
    <v>       0.02591400       0.39537700       0.57915900 </v>
    <v>       0.02186400       0.60462300       0.07915900 </v>
    <v>       0.52591400       0.89275200       0.57915900 </v>
    <v>       0.52591400       0.10462300       0.07915900 </v>
    <v>       0.17611800       0.20941000       0.08350500 </v>
    <v>       0.17611800       0.78583000       0.58579500 </v>
    <v>       0.67611800       0.71417000       0.08350500 </v>
    <v>       0.67611800       0.28583000       0.58350500 </v>
    <v>       0.17983500       0.20344500       0.73945400 </v>
    <v>       0.18147400       0.79655500       0.23945400 </v>
    <v>       0.68147400       0.70344500       0.73945400 </v>
    <v>       0.68147400       0.29655500       0.23945400 </v>
    <v>       0.18900300       0.20461000       0.42366300 </v>
    <v>       0.18900300       0.79814000       0.92366300 </v>
    <v>       0.68900300       0.70314100       0.42366300 </v>
    <v>       0.68900300       0.29814000       0.92366300 </v>
    <v>       0.29399000       0.34686800       0.57827500 </v>
    <v>       0.29347700       0.65313200       0.07827500 </v>
    <v>       0.79347700       0.84686800       0.57827500 </v>
    <v>       0.79347700       0.15313200       0.07827500 </v>
    <v>       0.30310600       0.30561100       0.24801900 </v>
    <v>       0.30037600       0.69566500       0.74747200 </v>
    <v>       0.80901600       0.80561100       0.24801900 </v>
    <v>       0.80310600       0.19438900       0.74801900 </v>
    <v>       0.49071400       0.13464800       0.42295500 </v>
    <v>       0.49071400       0.86535200       0.92295500 </v>
    <v>       0.98684400       0.63464800       0.43219600 </v>
    <v>       0.99071400       0.36535200       0.92295500 </v>
   </varray>
  </structure>
  <varray name="forces" >
   <v>       0.09168208       0.08348723      -0.35723614 </v>
   <v>       0.15733938       0.38697968      -0.65550492 </v>
   <v>       0.36832192       0.15520777      -0.31621796 </v>
   <v>       0.52488980      -0.36174967      -2.19267391 </v>
   <v>       0.32766011      -0.74813546       1.20797797 </v>
   <v>      -0.04357507       0.43032253       1.66356761 </v>
   <v>       0.30805972      -0.75465350       1.32521866 </v>
   <v>       0.33408377       0.86715049       1.59503139 </v>
   <v>      -0.65655258       1.00756661       0.07441307 </v>
   <v>      -0.56752990      -0.95047679      -0.07443453 </v>
   <v>      -0.40616967       1.07506452       0.11387886 </v>
   <v>      -0.60356673      -1.16095182      -0.13976468 </v>
   <v>       0.31691393      -1.31232654      -1.24228505 </v>
   <v>       0.18309630       1.21675432      -1.33102206 </v>
   <v>       0.20364488      -1.31925525      -1.19293877 </v>
   <v>       0.26126100       1.24763650      -1.34697190 </v>
   <v>      -0.29707280      -1.71174174       0.11583384 </v>
   <v>       0.30948476       2.02207560      -0.06811404 </v>
   <v>      -0.31935261      -1.73291687       0.14769033 </v>
   <v>      -0.33895781       1.74859029       0.27697773 </v>
   <v>      -0.31354272       0.27955807       0.39843109 </v>
   <v>      -0.50976150      -0.24840654       0.40479015 </v>
   <v>      -0.32401716       0.19045310       0.37022866 </v>
   <v>      -1.16926150       0.12196637       1.14169341 </v>
   <v>      -0.60168214       0.11676708      -0.24231344 </v>
   <v>      -0.51139853      -0.28391306      -0.40313359 </v>
   <v>      -0.77836288       0.30034321      -0.51946483 </v>
   <v>      -0.63700477      -0.26348022      -0.37165565 </v>
   <v>       0.19175478      -0.18055033      -0.42534207 </v>
   <v>       0.22196174       0.28852491      -0.49231907 </v>
   <v>       0.20907353      -0.32593152      -0.40032983 </v>
   <v>       0.31237124       0.34337212      -0.46406242 </v>
   <v>       0.74871202      -0.13141650       0.74664817 </v>
   <v>       0.70153406      -0.11434722       0.64003813 </v>
   <v>       0.76507378      -0.18109267       0.97930056 </v>
   <v>       0.67240139      -0.05943372       0.60280050 </v>
   <v>       0.44603569      -0.24785956       0.03498623 </v>
   <v>       0.50475953       0.21478596       0.10829232 </v>
   <v>       0.50654188      -0.35355189      -0.07564346 </v>
   <v>       0.47772379       0.26303156       0.00472163 </v>
   <v>       0.19747949       0.08741024      -0.23575434 </v>
   <v>       0.12236703      -0.18410870      -0.35938609 </v>
   <v>       0.24500826       0.01609215      -0.44275730 </v>
   <v>       0.19803776      -0.12909899      -0.38537461 </v>
   <v>      -0.23379785      -0.15147329       0.25604099 </v>
   <v>      -0.03963337       0.07118364       0.36057685 </v>
   <v>      -0.48556969      -0.15878813       0.25339550 </v>
   <v>       0.11691985       0.37552138       0.69792476 </v>
   <v>      -0.31818042      -0.49876593       0.19332471 </v>
   <v>      -0.28157185       0.46169910       0.13379067 </v>
   <v>      -0.29452418      -0.24680095      -0.30193109 </v>
   <v>      -0.29310774       0.43968244       0.18905794 </v>
  </varray>
  <varray name="stress" >
   <v>    -202.53342932      -0.24200486      -1.38423665 </v>
   <v>      -0.24200423    -208.83630103      -0.38438779 </v>
   <v>      -1.38423608      -0.38438741    -235.43053312 </v>
  </varray>
  <energy>
   <i name="e_fr_energy">   -276.76473982 </i>
   <i name="e_wo_entrp">   -276.78532442 </i>
   <i name="e_0_energy">      0.06175380 </i>
  </energy>
  <time name="totalsc">  171.70  226.83</time>
  <eigenvalues>
   <array>
    <dimension dim="1">band</dimension>
    <dimension dim="2">kpoint</dimension>
    <dimension dim="3">spin</dimension>
    <field>eigene</field>
    <field>occ</field>
    <set>
     <set comment="spin 1">
      <set comment="kpoint 1">
       <r>  -23.9730    1.0000 </r>
       <r>  -23.8400    1.0000 </r>
       <r>  -23.7221    1.0000 </r>
       <r>  -23.7097    1.0000 </r>
       <r>  -23.6822    1.0000 </r>
       <r>  -23.6584    1.0000 </r>
       <r>  -23.6227    1.0000 </r>
       <r>  -23.5806    1.0000 </r>
       <r>  -23.5671    1.0000 </r>
       <r>  -23.5340    1.0000 </r>
       <r>  -23.4936    1.0000 </r>
       <r>  -23.4560    1.0000 </r>
       <r>  -23.4216    1.0000 </r>
       <r>  -23.2901    1.0000 </r>
       <r>  -23.2345    1.0000 </r>
       <r>  -23.2242    1.0000 </r>
       <r>  -23.1963    1.0000 </r>
       <r>  -23.1790    1.0000 </r>
       <r>  -23.1621    1.0000 </r>
       <r>  -23.1148    1.0000 </r>
       <r>  -23.1045    1.0000 </r>
       <r>  -23.0898    1.0000 </r>
       <r>  -23.0669    1.0000 </r>
       <r>  -23.0335    1.0000 </r>
       <r>  -22.9876    1.0000 </r>
       <r>  -22.9791    1.0000 </r>
       <r>  -22.9636    1.0000 </r>
       <r>  -22.9090    1.0000 </r>
       <r>  -22.8007    1.0000 </r>
       <r>  -22.7536    1.0000 </r>
       <r>  -22.7207    1.0000 </r>
       <r>  -22.7146    1.0000 </r>
       <r>  -18.9125    1.0000 </r>
       <r>  -18.7093    1.0000 </r>
       <r>  -18.6994    1.0000 </r>
       <r>  -18.6091    1.0000 </r>
       <r>   -6.9825    1.0000 </r>
       <r>   -6.9544    1.0000 </r>
       <r>   -6.8629    1.0000 </r>
       <r>   -6.8039    1.0000 </r>
       <r>   -6.7935    1.0000 </r>
       <r>   -6.7319    1.0000 </r>
       <r>   -6.7105    1.0000 </r>
       <r>   -6.6639    1.0000 </r>
       <r>   -6.4720    1.0000 </r>
       <r>   -6.4310    1.0000 </r>
       <r>   -6.3941    1.0000 </r>
       <r>   -6.3519    1.0000 </r>
       <r>   -6.2201    1.0000 </r>
       <r>   -6.1970    1.0000 </r>
       <r>   -6.1704    1.0000 </r>
       <r>   -6.1503    1.0000 </r>
       <r>   -6.1219    1.0000 </r>
       <r>   -6.1034    1.0000 </r>
       <r>   -6.0636    1.0000 </r>
       <r>   -6.0497    1.0000 </r>
       <r>   -6.0320    1.0000 </r>
       <r>   -6.0191    1.0000 </r>
       <r>   -5.9488    1.0000 </r>
       <r>   -5.9410    1.0000 </r>
       <r>   -5.9038    1.0000 </r>
       <r>   -5.8997    1.0000 </r>
       <r>   -5.8927    1.0000 </r>
       <r>   -5.8610    1.0000 </r>
       <r>   -5.8425    1.0000 </r>
       <r>   -5.8175    1.0000 </r>
       <r>   -5.8089    1.0000 </r>
       <r>   -5.7513    1.0000 </r>
       <r>   -5.7427    1.0000 </r>
       <r>   -5.7103    1.0000 </r>
       <r>   -5.6795    1.0000 </r>
       <r>   -5.6618    1.0000 </r>
       <r>   -5.6212    1.0000 </r>
       <r>   -5.6161    1.0000 </r>
       <r>   -5.5984    1.0000 </r>
       <r>   -5.5389    1.0000 </r>
       <r>   -5.5266    1.0000 </r>
       <r>   -5.4986    1.0000 </r>
       <r>   -5.4573    1.0000 </r>
       <r>   -5.4373    1.0000 </r>
       <r>   -5.4152    1.0000 </r>
       <r>   -5.3964    1.0000 </r>
       <r>   -5.2515    1.0000 </r>
       <r>   -5.2220    1.0000 </r>
       <r>   -5.1962    1.0000 </r>
       <r>   -5.1570    1.0000 </r>
       <r>   -5.1171    1.0000 </r>
       <r>   -5.0921    1.0000 </r>
       <r>   -5.0478    1.0000 </r>
       <r>   -5.0304    1.0000 </r>
       <r>   -4.9972    1.0000 </r>
       <r>   -4.9338    1.0000 </r>
       <r>   -4.8784    1.0000 </r>
       <r>   -4.8634    1.0000 </r>
       <r>   -4.8307    1.0000 </r>
       <r>   -4.8101    1.0000 </r>
       <r>   -4.7712    1.0000 </r>
       <r>   -4.7555    1.0000 </r>
       <r>   -4.7010    1.0000 </r>
       <r>   -4.6690    1.0000 </r>
       <r>   -4.6487    1.0000 </r>
       <r>   -4.6096    1.0000 </r>
       <r>   -4.5813    1.0000 </r>
       <r>   -4.5611    1.0000 </r>
       <r>   -4.5475    1.0000 </r>
       <r>   -4.5398    1.0000 </r>
       <r>   -4.4936    1.0000 </r>
       <r>   -4.4797    1.0000 </r>
       <r>   -4.4319    1.0000 </r>
       <r>   -4.4008    1.0000 </r>
       <r>   -4.3771    1.0000 </r>
       <r>   -4.3629    1.0000 </r>
       <r>   -4.3138    1.0000 </r>
       <r>   -4.2949    1.0000 </r>
       <r>   -4.2416    1.0000 </r>
       <r>   -4.1814    1.0000 </r>
       <r>   -4.1614    1.0000 </r>
       <r>   -4.1138    1.0000 </r>
       <r>   -4.0913    1.0000 </r>
       <r>   -4.0713    1.0000 </r>
       <r>   -4.0376    1.0000 </r>
       <r>   -4.0153    1.0000 </r>
       <r>   -3.9937    1.0000 </r>
       <r>   -3.9749    1.0000 </r>
       <r>   -3.9303    1.0000 </r>
       <r>   -3.9244    1.0000 </r>
       <r>   -3.8890    1.0000 </r>
       <r>   -3.8545    1.0000 </r>
       <r>   -3.8352    1.0000 </r>
       <r>   -3.8331    1.0000 </r>
       <r>   -3.7969    1.0000 </r>
       <r>   -3.7750    1.0000 </r>
       <r>   -3.7256    1.0000 </r>
       <r>   -3.7226    1.0000 </r>
       <r>   -3.6711    1.0000 </r>
       <r>   -3.6643    1.0000 </r>
       <r>   -3.6320    1.0000 </r>
       <r>   -3.6120    1.0000 </r>
       <r>   -3.5613    1.0000 </r>
       <r>   -3.5269    1.0000 </r>
       <r>   -3.5047    1.0000 </r>
       <r>   -3.4486    1.0000 </r>
       <r>   -3.4377    1.0000 </r>
       <r>   -3.3975    1.0000 </r>
       <r>   -0.8138    1.0000 </r>
       <r>   -0.8070    1.0000 </r>
       <r>   -0.7820    1.0000 </r>
       <r>   -0.7447    1.0000 </r>
       <r>   -0.7280    1.0000 </r>
       <r>   -0.7131    1.0001 </r>
       <r>   -0.6805    1.0001 </r>
       <r>   -0.6680    1.0002 </r>
       <r>   -0.6434    1.0004 </r>
       <r>   -0.6219    1.0006 </r>
       <r>   -0.6116    1.0008 </r>
       <r>   -0.6050    1.0009 </r>
       <r>   -0.5948    1.0011 </r>
       <r>   -0.5776    1.0016 </r>
       <r>   -0.5675    1.0020 </r>
       <r>   -0.5312    1.0041 </r>
       <r>   -0.5073    1.0063 </r>
       <r>   -0.4564    1.0138 </r>
       <r>   -0.4453    1.0160 </r>
       <r>   -0.4330    1.0186 </r>
       <r>   -0.4207    1.0213 </r>
       <r>   -0.4141    1.0228 </r>
       <r>   -0.4018    1.0257 </r>
       <r>   -0.3914    1.0280 </r>
       <r>   -0.3847    1.0295 </r>
       <r>   -0.3748    1.0315 </r>
       <r>   -0.3649    1.0332 </r>
       <r>   -0.3587    1.0340 </r>
       <r>   -0.3441    1.0353 </r>
       <r>   -0.3413    1.0354 </r>
       <r>   -0.3344    1.0354 </r>
       <r>   -0.3135    1.0327 </r>
       <r>   -0.2968    1.0270 </r>
       <r>   -0.2713    1.0098 </r>
       <r>   -0.2484    0.9838 </r>
       <r>   -0.2305    0.9552 </r>
       <r>   -0.2181    0.9308 </r>
       <r>   -0.1946    0.8741 </r>
       <r>   -0.1813    0.8360 </r>
       <r>   -0.1753    0.8175 </r>
       <r>   -0.1688    0.7963 </r>
       <r>   -0.1544    0.7462 </r>
       <r>   -0.1366    0.6792 </r>
       <r>   -0.1164    0.5978 </r>
       <r>   -0.0849    0.4654 </r>
       <r>   -0.0674    0.3921 </r>
       <r>   -0.0491    0.3187 </r>
       <r>   -0.0131    0.1897 </r>
       <r>    0.0172    0.1029 </r>
       <r>    0.0496    0.0356 </r>
       <r>    0.0623    0.0160 </r>
       <r>    0.0840   -0.0088 </r>
       <r>    0.1205   -0.0308 </r>
       <r>    0.1471   -0.0354 </r>
       <r>    0.1756   -0.0336 </r>
       <r>    0.1872   -0.0317 </r>
       <r>    0.2250   -0.0235 </r>
       <r>    0.2458   -0.0188 </r>
       <r>    0.2690   -0.0140 </r>
       <r>    0.3188   -0.0066 </r>
       <r>    0.3947   -0.0015 </r>
       <r>    0.4450   -0.0005 </r>
       <r>    0.4985   -0.0001 </r>
       <r>    0.5239   -0.0001 </r>
       <r>    0.5563   -0.0000 </r>
       <r>    0.7150   -0.0000 </r>
       <r>    0.7209   -0.0000 </r>
       <r>    0.7606   -0.0000 </r>
       <r>    0.7697   -0.0000 </r>
       <r>    0.8179   -0.0000 </r>
       <r>    0.8896   -0.0000 </r>
       <r>    0.9855   -0.0000 </r>
       <r>    1.0150   -0.0000 </r>
       <r>    1.0349   -0.0000 </r>
       <r>    1.0886   -0.0000 </r>
       <r>    1.1200   -0.0000 </r>
       <r>    1.1654   -0.0000 </r>
       <r>    1.1684   -0.0000 </r>
       <r>    1.2457   -0.0000 </r>
       <r>    1.2869   -0.0000 </r>
       <r>    3.3498   -0.0000 </r>
       <r>    4.2030   -0.0000 </r>
       <r>    4.6288   -0.0000 </r>
       <r>    5.2418    0.0000 </r>
      </set>
     </set>
    </set>
   </array>
  </eigenvalues>
  <separator name="orbital magnetization" >
   <v name="MAGDIPOLOUT">      0.00000000      0.00000000      0.00000000</v>
  </separator>
  <dos>
   <i name="efermi">     -0.09310892 </i>
   <total>
    <array>
     <dimension dim="1">gridpoints</dimension>
     <dimension dim="2">spin</dimension>
     <field>energy</field>
     <field>total</field>
     <field>integrated</field>
     <set>
      <set comment="spin 1">
       <r>   -25.9730     0.0000     0.0000 </r>
       <r>   -25.8623     0.0000     0.0000 </r>
       <r>   -25.7516     0.0000     0.0000 </r>
       <r>   -25.6409    -0.0000    -0.0000 </r>
       <r>   -25.5302    -0.0000    -0.0000 </r>
       <r>   -25.4195    -0.0000    -0.0000 </r>
       <r>   -25.3087    -0.0000    -0.0000 </r>
       <r>   -25.1980    -0.0000    -0.0000 </r>
       <r>   -25.0873    -0.0000    -0.0000 </r>
       <r>   -24.9766    -0.0000    -0.0000 </r>
       <r>   -24.8659    -0.0000    -0.0000 </r>
       <r>   -24.7552    -0.0000    -0.0000 </r>
       <r>   -24.6445    -0.0002    -0.0000 </r>
       <r>   -24.5337    -0.0048    -0.0005 </r>
       <r>   -24.4230    -0.0573    -0.0069 </r>
       <r>   -24.3123    -0.3187    -0.0422 </r>
       <r>   -24.2016    -0.5774    -0.1061 </r>
       <r>   -24.0909     1.1437     0.0205 </r>
       <r>   -23.9802     6.2329     0.7106 </r>
       <r>   -23.8694    13.7051     2.2280 </r>
       <r>   -23.7587    29.0477     5.4440 </r>
       <r>   -23.6480    52.0227    11.2038 </r>
       <r>   -23.5373    61.4607    18.0085 </r>
       <r>   -23.4266    47.8854    23.3102 </r>
       <r>   -23.3159    36.6775    27.3710 </r>
       <r>   -23.2051    53.2596    33.2677 </r>
       <r>   -23.0944    76.4650    41.7336 </r>
       <r>   -22.9837    73.6897    49.8923 </r>
       <r>   -22.8730    52.3742    55.6909 </r>
       <r>   -22.7623    38.1392    59.9136 </r>
       <r>   -22.6516    27.9972    63.0133 </r>
       <r>   -22.5408    10.9175    64.2221 </r>
       <r>   -22.4301    -0.2256    64.1971 </r>
       <r>   -22.3194    -1.3679    64.0456 </r>
       <r>   -22.2087    -0.3684    64.0048 </r>
       <r>   -22.0980    -0.0413    64.0003 </r>
       <r>   -21.9873    -0.0023    64.0000 </r>
       <r>   -21.8765    -0.0001    64.0000 </r>
       <r>   -21.7658    -0.0000    64.0000 </r>
       <r>   -21.6551    -0.0000    64.0000 </r>
       <r>   -21.5444    -0.0000    64.0000 </r>
       <r>   -21.4337    -0.0000    64.0000 </r>
       <r>   -21.3230     0.0000    64.0000 </r>
       <r>   -21.2122     0.0000    64.0000 </r>
       <r>   -21.1015     0.0000    64.0000 </r>
       <r>   -20.9908     0.0000    64.0000 </r>
       <r>   -20.8801     0.0000    64.0000 </r>
       <r>   -20.7694     0.0000    64.0000 </r>
       <r>   -20.6587     0.0000    64.0000 </r>
       <r>   -20.5479    -0.0000    64.0000 </r>
       <r>   -20.4372    -0.0000    64.0000 </r>
       <r>   -20.3265    -0.0000    64.0000 </r>
       <r>   -20.2158    -0.0000    64.0000 </r>
       <r>   -20.1051    -0.0000    64.0000 </r>
       <r>   -19.9944    -0.0000    64.0000 </r>
       <r>   -19.8837    -0.0000    64.0000 </r>
       <r>   -19.7729    -0.0000    64.0000 </r>
       <r>   -19.6622    -0.0000    64.0000 </r>
       <r>   -19.5515    -0.0005    63.9999 </r>
       <r>   -19.4408    -0.0104    63.9988 </r>
       <r>   -19.3301    -0.0984    63.9879 </r>
       <r>   -19.2194    -0.3934    63.9443 </r>
       <r>   -19.1086    -0.2041    63.9217 </r>
       <r>   -18.9979     2.6019    64.2098 </r>
       <r>   -18.8872     7.9842    65.0938 </r>
       <r>   -18.7765    15.1540    66.7716 </r>
       <r>   -18.6658    22.3973    69.2513 </r>
       <r>   -18.5551    19.1216    71.3684 </r>
       <r>   -18.4443     6.9216    72.1348 </r>
       <r>   -18.3336    -0.1752    72.1154 </r>
       <r>   -18.2229    -0.7995    72.0268 </r>
       <r>   -18.1122    -0.2158    72.0029 </r>
       <r>   -18.0015    -0.0251    72.0002 </r>
       <r>   -17.8908    -0.0015    72.0000 </r>
       <r>   -17.7800    -0.0000    72.0000 </r>
       <r>   -17.6693    -0.0000    72.0000 </r>
       <r>   -17.5586    -0.0000    72.0000 </r>
       <r>   -17.4479    -0.0000    72.0000 </r>
       <r>   -17.3372    -0.0000    72.0000 </r>
       <r>   -17.2265     0.0000    72.0000 </r>
       <r>   -17.1157     0.0000    72.0000 </r>
       <r>   -17.0050     0.0000    72.0000 </r>
       <r>   -16.8943     0.0000    72.0000 </r>
       <r>   -16.7836     0.0000    72.0000 </r>
       <r>   -16.6729     0.0000    72.0000 </r>
       <r>   -16.5622     0.0000    72.0000 </r>
       <r>   -16.4514     0.0000    72.0000 </r>
       <r>   -16.3407     0.0000    72.0000 </r>
       <r>   -16.2300     0.0000    72.0000 </r>
       <r>   -16.1193     0.0000    72.0000 </r>
       <r>   -16.0086     0.0000    72.0000 </r>
       <r>   -15.8979     0.0000    72.0000 </r>
       <r>   -15.7872     0.0000    72.0000 </r>
       <r>   -15.6764     0.0000    72.0000 </r>
       <r>   -15.5657     0.0000    72.0000 </r>
       <r>   -15.4550     0.0000    72.0000 </r>
       <r>   -15.3443     0.0000    72.0000 </r>
       <r>   -15.2336     0.0000    72.0000 </r>
       <r>   -15.1229     0.0000    72.0000 </r>
       <r>   -15.0121     0.0000    72.0000 </r>
       <r>   -14.9014     0.0000    72.0000 </r>
       <r>   -14.7907     0.0000    72.0000 </r>
       <r>   -14.6800     0.0000    72.0000 </r>
       <r>   -14.5693     0.0000    72.0000 </r>
       <r>   -14.4586     0.0000    72.0000 </r>
       <r>   -14.3478     0.0000    72.0000 </r>
       <r>   -14.2371     0.0000    72.0000 </r>
       <r>   -14.1264     0.0000    72.0000 </r>
       <r>   -14.0157     0.0000    72.0000 </r>
       <r>   -13.9050     0.0000    72.0000 </r>
       <r>   -13.7943     0.0000    72.0000 </r>
       <r>   -13.6835     0.0000    72.0000 </r>
       <r>   -13.5728     0.0000    72.0000 </r>
       <r>   -13.4621     0.0000    72.0000 </r>
       <r>   -13.3514     0.0000    72.0000 </r>
       <r>   -13.2407     0.0000    72.0000 </r>
       <r>   -13.1300     0.0000    72.0000 </r>
       <r>   -13.0192     0.0000    72.0000 </r>
       <r>   -12.9085     0.0000    72.0000 </r>
       <r>   -12.7978     0.0000    72.0000 </r>
       <r>   -12.6871     0.0000    72.0000 </r>
       <r>   -12.5764     0.0000    72.0000 </r>
       <r>   -12.4657     0.0000    72.0000 </r>
       <r>   -12.3549     0.0000    72.0000 </r>
       <r>   -12.2442     0.0000    72.0000 </r>
       <r>   -12.1335     0.0000    72.0000 </r>
       <r>   -12.0228     0.0000    72.0000 </r>
       <r>   -11.9121     0.0000    72.0000 </r>
       <r>   -11.8014     0.0000    72.0000 </r>
       <r>   -11.6906     0.0000    72.0000 </r>
       <r>   -11.5799     0.0000    72.0000 </r>
       <r>   -11.4692     0.0000    72.0000 </r>
       <r>   -11.3585     0.0000    72.0000 </r>
       <r>   -11.2478     0.0000    72.0000 </r>
       <r>   -11.1371     0.0000    72.0000 </r>
       <r>   -11.0264     0.0000    72.0000 </r>
       <r>   -10.9156     0.0000    72.0000 </r>
       <r>   -10.8049     0.0000    72.0000 </r>
       <r>   -10.6942     0.0000    72.0000 </r>
       <r>   -10.5835     0.0000    72.0000 </r>
       <r>   -10.4728     0.0000    72.0000 </r>
       <r>   -10.3621     0.0000    72.0000 </r>
       <r>   -10.2513     0.0000    72.0000 </r>
       <r>   -10.1406     0.0000    72.0000 </r>
       <r>   -10.0299     0.0000    72.0000 </r>
       <r>    -9.9192     0.0000    72.0000 </r>
       <r>    -9.8085     0.0000    72.0000 </r>
       <r>    -9.6978     0.0000    72.0000 </r>
       <r>    -9.5870     0.0000    72.0000 </r>
       <r>    -9.4763     0.0000    72.0000 </r>
       <r>    -9.3656     0.0000    72.0000 </r>
       <r>    -9.2549     0.0000    72.0000 </r>
       <r>    -9.1442     0.0000    72.0000 </r>
       <r>    -9.0335     0.0000    72.0000 </r>
       <r>    -8.9227     0.0000    72.0000 </r>
       <r>    -8.8120     0.0000    72.0000 </r>
       <r>    -8.7013     0.0000    72.0000 </r>
       <r>    -8.5906    -0.0000    72.0000 </r>
       <r>    -8.4799    -0.0000    72.0000 </r>
       <r>    -8.3692    -0.0000    72.0000 </r>
       <r>    -8.2584    -0.0000    72.0000 </r>
       <r>    -8.1477    -0.0000    72.0000 </r>
       <r>    -8.0370    -0.0000    72.0000 </r>
       <r>    -7.9263    -0.0000    72.0000 </r>
       <r>    -7.8156    -0.0000    72.0000 </r>
       <r>    -7.7049    -0.0001    72.0000 </r>
       <r>    -7.5941    -0.0017    71.9998 </r>
       <r>    -7.4834    -0.0306    71.9964 </r>
       <r>    -7.3727    -0.2668    71.9669 </r>
       <r>    -7.2620    -1.0011    71.8560 </r>
       <r>    -7.1513    -0.4541    71.8058 </r>
       <r>    -7.0406     7.1247    72.5946 </r>
       <r>    -6.9298    22.9770    75.1385 </r>
       <r>    -6.8191    38.6678    79.4197 </r>
       <r>    -6.7084    42.2443    84.0968 </r>
       <r>    -6.5977    29.8595    87.4027 </r>
       <r>    -6.4870    21.7390    89.8096 </r>
       <r>    -6.3763    27.1871    92.8196 </r>
       <r>    -6.2656    35.7827    96.7814 </r>
       <r>    -6.1548    53.7488   102.7322 </r>
       <r>    -6.0441    74.4798   110.9784 </r>
       <r>    -5.9334    84.6726   120.3530 </r>
       <r>    -5.8227    86.9048   129.9748 </r>
       <r>    -5.7120    82.4434   139.1026 </r>
       <r>    -5.6013    77.0617   147.6346 </r>
       <r>    -5.4905    70.5651   155.4473 </r>
       <r>    -5.3798    54.9110   161.5268 </r>
       <r>    -5.2691    40.6667   166.0293 </r>
       <r>    -5.1584    45.3156   171.0465 </r>
       <r>    -5.0477    54.4279   177.0725 </r>
       <r>    -4.9370    54.8558   183.1460 </r>
       <r>    -4.8262    57.0172   189.4587 </r>
       <r>    -4.7155    63.3776   196.4756 </r>
       <r>    -4.6048    71.2045   204.3591 </r>
       <r>    -4.4941    76.2977   212.8065 </r>
       <r>    -4.3834    70.5464   220.6171 </r>
       <r>    -4.2727    58.5758   227.1024 </r>
       <r>    -4.1619    54.7538   233.1646 </r>
       <r>    -4.0512    65.3109   240.3956 </r>
       <r>    -3.9405    77.5218   248.9785 </r>
       <r>    -3.8298    81.1926   257.9678 </r>
       <r>    -3.7191    77.9143   266.5942 </r>
       <r>    -3.6084    71.2501   274.4827 </r>
       <r>    -3.4976    61.7394   281.3183 </r>
       <r>    -3.3869    43.7168   286.1585 </r>
       <r>    -3.2762    18.1163   288.1642 </r>
       <r>    -3.1655     1.2135   288.2986 </r>
       <r>    -3.0548    -1.8976   288.0885 </r>
       <r>    -2.9441    -0.6917   288.0119 </r>
       <r>    -2.8333    -0.1002   288.0008 </r>
       <r>    -2.7226    -0.0071   288.0000 </r>
       <r>    -2.6119    -0.0003   288.0000 </r>
       <r>    -2.5012    -0.0000   288.0000 </r>
       <r>    -2.3905    -0.0000   288.0000 </r>
       <r>    -2.2798    -0.0000   288.0000 </r>
       <r>    -2.1690    -0.0000   288.0000 </r>
       <r>    -2.0583    -0.0000   288.0000 </r>
       <r>    -1.9476    -0.0000   288.0000 </r>
       <r>    -1.8369    -0.0000   288.0000 </r>
       <r>    -1.7262    -0.0000   288.0000 </r>
       <r>    -1.6155    -0.0000   288.0000 </r>
       <r>    -1.5048    -0.0002   288.0000 </r>
       <r>    -1.3940    -0.0072   287.9992 </r>
       <r>    -1.2833    -0.1099   287.9870 </r>
       <r>    -1.1726    -0.8384   287.8942 </r>
       <r>    -1.0619    -2.7388   287.5910 </r>
       <r>    -0.9512    -0.2722   287.5608 </r>
       <r>    -0.8405    21.8513   289.9801 </r>
       <r>    -0.7297    64.0880   297.0757 </r>
       <r>    -0.6190    98.2893   307.9579 </r>
       <r>    -0.5083   114.6184   320.6480 </r>
       <r>    -0.3976   135.4408   335.6435 </r>
       <r>    -0.2869   149.0199   352.1425 </r>
       <r>    -0.1762   133.6709   366.9420 </r>
       <r>    -0.0654   105.7211   378.6471 </r>
       <r>     0.0453    84.1489   387.9637 </r>
       <r>     0.1560    75.2342   396.2934 </r>
       <r>     0.2667    65.4167   403.5361 </r>
       <r>     0.3774    48.9069   408.9508 </r>
       <r>     0.4881    38.5543   413.2194 </r>
       <r>     0.5989    34.7406   417.0658 </r>
       <r>     0.7096    36.8789   421.1489 </r>
       <r>     0.8203    41.7623   425.7727 </r>
       <r>     0.9310    40.2737   430.2316 </r>
       <r>     1.0417    44.3577   435.1427 </r>
       <r>     1.1524    51.4373   440.8377 </r>
       <r>     1.2632    42.7508   445.5709 </r>
       <r>     1.3739    20.8122   447.8751 </r>
       <r>     1.4846     3.5725   448.2706 </r>
       <r>     1.5953    -1.4407   448.1111 </r>
       <r>     1.7060    -0.8301   448.0192 </r>
       <r>     1.8167    -0.1587   448.0017 </r>
       <r>     1.9275    -0.0144   448.0001 </r>
       <r>     2.0382    -0.0007   448.0000 </r>
       <r>     2.1489    -0.0000   448.0000 </r>
       <r>     2.2596    -0.0000   448.0000 </r>
       <r>     2.3703    -0.0000   448.0000 </r>
       <r>     2.4810    -0.0000   448.0000 </r>
       <r>     2.5917    -0.0000   448.0000 </r>
       <r>     2.7025    -0.0004   448.0000 </r>
       <r>     2.8132    -0.0085   447.9990 </r>
       <r>     2.9239    -0.0841   447.9897 </r>
       <r>     3.0346    -0.3439   447.9516 </r>
       <r>     3.1453    -0.0562   447.9454 </r>
       <r>     3.2560     3.1583   448.2951 </r>
       <r>     3.3668     7.6585   449.1430 </r>
       <r>     3.4775     6.5934   449.8730 </r>
       <r>     3.5882     1.7832   450.0704 </r>
       <r>     3.6989    -0.3554   450.0311 </r>
       <r>     3.8096    -0.3924   449.9877 </r>
       <r>     3.9203    -0.4497   449.9379 </r>
       <r>     4.0311     0.4905   449.9922 </r>
       <r>     4.1418     4.6271   450.5045 </r>
       <r>     4.2525     7.9230   451.3817 </r>
       <r>     4.3632     4.7941   451.9125 </r>
       <r>     4.4739     1.6962   452.1003 </r>
       <r>     4.5846     5.0340   452.6576 </r>
       <r>     4.6954     7.9002   453.5323 </r>
       <r>     4.8061     4.3106   454.0095 </r>
       <r>     4.9168     0.0642   454.0166 </r>
       <r>     5.0275    -0.5638   453.9542 </r>
       <r>     5.1382     2.6009   454.2422 </r>
       <r>     5.2489     7.3886   455.0602 </r>
       <r>     5.3597     6.9541   455.8301 </r>
       <r>     5.4704     2.1538   456.0686 </r>
       <r>     5.5811    -0.2816   456.0374 </r>
       <r>     5.6918    -0.2786   456.0066 </r>
       <r>     5.8025    -0.0545   456.0005 </r>
       <r>     5.9132    -0.0047   456.0000 </r>
       <r>     6.0240    -0.0002   456.0000 </r>
       <r>     6.1347    -0.0000   456.0000 </r>
       <r>     6.2454    -0.0000   456.0000 </r>
       <r>     6.3561    -0.0000   456.0000 </r>
       <r>     6.4668    -0.0000   456.0000 </r>
       <r>     6.5775     0.0000   456.0000 </r>
       <r>     6.6883     0.0000   456.0000 </r>
       <r>     6.7990     0.0000   456.0000 </r>
       <r>     6.9097     0.0000   456.0000 </r>
       <r>     7.0204     0.0000   456.0000 </r>
       <r>     7.1311     0.0000   456.0000 </r>
       <r>     7.2418     0.0000   456.0000 </r>
      </set>
     </set>
    </array>
   </total>
  </dos>
 </calculation>
 <structure name="finalpos" >
  <crystal>
   <varray name="basis" >
    <v>       9.40119100       0.00000000      -0.06486500 </v>
    <v>       0.00000000       5.35946700       0.00000000 </v>
    <v>       0.00000000      -0.03087800      14.95565100 </v>
   </varray>
   <i name="volume">    753.54605297 </i>
   <varray name="rec_basis" >
    <v>       0.10636950       0.00000000       0.00000000 </v>
    <v>       0.00000266       0.18658572       0.00038523 </v>
    <v>       0.00046134       0.00000000       0.06686436 </v>
   </varray>
  </crystal>
  <varray name="positions" >
   <v>       0.16411200       0.48397600       0.17995900 </v>
   <v>       0.16411200       0.50755200       0.67995900 </v>
   <v>       0.66411200       0.98397600       0.17995900 </v>
   <v>       0.66411200       0.01602400       0.68788600 </v>
   <v>       0.17533200       0.47285200       0.97303200 </v>
   <v>       0.17533200       0.52937200       0.47303200 </v>
   <v>       0.67533200       0.97285200       0.97303200 </v>
   <v>       0.67533200       0.02714800       0.47303200 </v>
   <v>       0.33162900       0.02941400       0.82240100 </v>
   <v>       0.33162900       0.96820000       0.32240100 </v>
   <v>       0.83162900       0.52941400       0.82240100 </v>
   <v>       0.83162900       0.47940100       0.32240100 </v>
   <v>       0.33361900       0.00432000       0.51711500 </v>
   <v>       0.33361900       0.99568000       0.01711500 </v>
   <v>       0.83361900       0.50432000       0.51711500 </v>
   <v>       0.83361900       0.49568000       0.01711500 </v>
   <v>       0.30926400       0.26800400       0.92544800 </v>
   <v>       0.30183700       0.73259200       0.42544800 </v>
   <v>       0.80926400       0.76740800       0.92544800 </v>
   <v>       0.80926400       0.23259200       0.42544800 </v>
   <v>       0.00386100       0.36884200       0.24394900 </v>
   <v>       0.00800300       0.63115800       0.74394900 </v>
   <v>       0.50386100       0.86884200       0.24394900 </v>
   <v>       0.50386100       0.13115800       0.73723600 </v>
   <v>       0.02591400       0.39537700       0.57915900 </v>
   <v>       0.02186400       0.60462300       0.07915900 </v>
   <v>       0.52591400       0.89275200       0.57915900 </v>
   <v>       0.52591400       0.10462300       0.07915900 </v>
   <v>       0.17611800       0.20941000       0.08350500 </v>
   <v>       0.17611800       0.78583000       0.58579500 </v>
   <v>       0.67611800       0.71417000       0.08350500 </v>
   <v>       0.67611800       0.28583000       0.58350500 </v>
   <v>       0.17983500       0.20344500       0.73945400 </v>
   <v>       0.18147400       0.79655500       0.23945400 </v>
   <v>       0.68147400       0.70344500       0.73945400 </v>
   <v>       0.68147400       0.29655500       0.23945400 </v>
   <v>       0.18900300       0.20461000       0.42366300 </v>
   <v>       0.18900300       0.79814000       0.92366300 </v>
   <v>       0.68900300       0.70314100       0.42366300 </v>
   <v>       0.68900300       0.29814000       0.92366300 </v>
   <v>       0.29399000       0.34686800       0.57827500 </v>
   <v>       0.29347700       0.65313200       0.07827500 </v>
   <v>       0.79347700       0.84686800       0.57827500 </v>
   <v>       0.79347700       0.15313200       0.07827500 </v>
   <v>       0.30310600       0.30561100       0.24801900 </v>
   <v>       0.30037600       0.69566500       0.74747200 </v>
   <v>       0.80901600       0.80561100       0.24801900 </v>
   <v>       0.80310600       0.19438900       0.74801900 </v>
   <v>       0.49071400       0.13464800       0.42295500 </v>
   <v>       0.49071400       0.86535200       0.92295500 </v>
   <v>       0.98684400       0.63464800       0.43219600 </v>
   <v>       0.99071400       0.36535200       0.92295500 </v>
  </varray>
 </structure>
</modeling>
