<?xml version="1.0" encoding="ISO-8859-1"?>
<modeling>
 <generator>
  <i name="program" type="string">vasp </i>
  <i name="version" type="string">5.3.5  </i>
  <i name="subversion" type="string">31Mar14 (build Aug 29 2014 19:41:47) complex                          parallel </i>
  <i name="platform" type="string">LinuxIFC </i>
  <i name="date" type="string">2019 04 11 </i>
  <i name="time" type="string">12:54:53 </i>
 </generator>
 <incar>
  <i type="string" name="SYSTEM"> Fe4OF7_var_14</i>
  <i type="int" name="ISTART">     0</i>
  <i type="string" name="PREC">normal</i>
  <i type="string" name="ALGO"> VeryFast</i>
  <i type="int" name="ISPIN">     1</i>
  <i type="int" name="ICHARG">     2</i>
  <i type="int" name="NELM">   300</i>
  <i type="int" name="ISYM">     0</i>
  <i type="logical" name="LWAVE"> F  </i>
  <i type="int" name="NELM">   300</i>
 </incar>
 <kpoints>
  <generation param="Gamma">
   <v type="int" name="divisions">       1        1        1 </v>
   <v name="usershift">      0.00000000       0.00000000       0.00000000 </v>
   <v name="genvec1">      1.00000000       0.00000000       0.00000000 </v>
   <v name="genvec2">      0.00000000       1.00000000       0.00000000 </v>
   <v name="genvec3">     -0.00000000       0.00000000       1.00000000 </v>
   <v name="shift">      0.00000000       0.00000000       0.00000000 </v>
  </generation>
  <varray name="kpointlist" >
   <v>       0.00000000       0.00000000       0.00000000 </v>
  </varray>
  <varray name="weights" >
   <v>       1.00000000 </v>
  </varray>
 </kpoints>
 <parameters>
  <separator name="general" >
   <i type="string" name="SYSTEM">Fe4OF7_var_14</i>
   <i type="logical" name="LCOMPAT"> F  </i>
  </separator>
  <separator name="electronic" >
   <i type="string" name="PREC">normal</i>
   <i name="ENMAX">    400.00000000</i>
   <i name="ENAUG">    613.61400000</i>
   <i name="EDIFF">      0.00010000</i>
   <i type="int" name="IALGO">    48</i>
   <i type="int" name="IWAVPR">    10</i>
   <i type="int" name="NBANDS">   104</i>
   <i name="NELECT">    174.00000000</i>
   <i type="int" name="TURBO">     0</i>
   <i type="int" name="IRESTART">     0</i>
   <i type="int" name="NREBOOT">     0</i>
   <i type="int" name="NMIN">     0</i>
   <i name="EREF">      0.00000000</i>
   <separator name="electronic smearing" >
    <i type="int" name="ISMEAR">     1</i>
    <i name="SIGMA">      0.20000000</i>
    <i name="KSPACING">      0.50000000</i>
    <i type="logical" name="KGAMMA"> T  </i>
   </separator>
   <separator name="electronic projectors" >
    <i type="logical" name="LREAL"> F  </i>
    <v name="ROPT">      0.00000000      0.00000000      0.00000000</v>
    <i type="int" name="LMAXPAW">  -100</i>
    <i type="int" name="LMAXMIX">     2</i>
    <i type="logical" name="NLSPLINE"> F  </i>
   </separator>
   <separator name="electronic startup" >
    <i type="int" name="ISTART">     0</i>
    <i type="int" name="ICHARG">     2</i>
    <i type="int" name="INIWAV">     1</i>
   </separator>
   <separator name="electronic spin" >
    <i type="int" name="ISPIN">     1</i>
    <i type="logical" name="LNONCOLLINEAR"> F  </i>
    <v name="MAGMOM">      1.00000000      1.00000000      1.00000000      1.00000000      1.00000000      1.00000000      1.00000000      1.00000000      1.00000000      1.00000000      1.00000000      1.00000000      1.00000000      1.00000000      1.00000000      1.00000000      1.00000000      1.00000000      1.00000000      1.00000000
      1.00000000      1.00000000      1.00000000      1.00000000</v>
    <i name="NUPDOWN">     -1.00000000</i>
    <i type="logical" name="LSORBIT"> F  </i>
    <v name="SAXIS">      0.00000000      0.00000000      1.00000000</v>
    <i type="logical" name="LSPIRAL"> F  </i>
    <v name="QSPIRAL">      0.00000000      0.00000000      0.00000000</v>
    <i type="logical" name="LZEROZ"> F  </i>
   </separator>
   <separator name="electronic exchange-correlation" >
    <i type="logical" name="LASPH"> F  </i>
    <i type="logical" name="LMETAGGA"> F  </i>
   </separator>
   <separator name="electronic convergence" >
    <i type="int" name="NELM">   300</i>
    <i type="int" name="NELMDL">   -12</i>
    <i type="int" name="NELMIN">     2</i>
    <i name="ENINI">    400.00000000</i>
    <separator name="electronic convergence detail" >
     <i type="logical" name="LDIAG"> T  </i>
     <i type="logical" name="LSUBROT"> F  </i>
     <i name="WEIMIN">      0.00000000</i>
     <i name="EBREAK">      0.00000024</i>
     <i name="DEPER">      0.30000000</i>
     <i type="int" name="NRMM">     4</i>
     <i name="TIME">      0.40000000</i>
    </separator>
   </separator>
   <separator name="electronic mixer" >
    <i name="AMIX">      0.40000000</i>
    <i name="BMIX">      1.00000000</i>
    <i name="AMIN">      0.10000000</i>
    <i name="AMIX_MAG">      1.60000000</i>
    <i name="BMIX_MAG">      1.00000000</i>
    <separator name="electronic mixer details" >
     <i type="int" name="IMIX">     4</i>
     <i type="int" name="MAXMIX">   -45</i>
     <i name="WC">    100.00000000</i>
     <i type="int" name="INIMIX">     1</i>
     <i type="int" name="MIXPRE">     1</i>
     <i type="int" name="MREMOVE">     5</i>
    </separator>
   </separator>
   <separator name="electronic dipolcorrection" >
    <i type="logical" name="LDIPOL"> F  </i>
    <i type="logical" name="LMONO"> F  </i>
    <i type="int" name="IDIPOL">     0</i>
    <i name="EPSILON">      1.00000000</i>
    <v name="DIPOL">   -100.00000000   -100.00000000   -100.00000000</v>
    <i name="EFIELD">      0.00000000</i>
   </separator>
  </separator>
  <separator name="grids" >
   <i type="int" name="NGX">    28</i>
   <i type="int" name="NGY">    24</i>
   <i type="int" name="NGZ">    54</i>
   <i type="int" name="NGXF">    56</i>
   <i type="int" name="NGYF">    48</i>
   <i type="int" name="NGZF">   108</i>
   <i type="logical" name="ADDGRID"> F  </i>
  </separator>
  <separator name="ionic" >
   <i type="int" name="NSW">     0</i>
   <i type="int" name="IBRION">    -1</i>
   <i type="int" name="ISIF">     2</i>
   <i name="PSTRESS">      0.00000000</i>
   <i name="EDIFFG">      0.00100000</i>
   <i type="int" name="NFREE">     0</i>
   <i name="POTIM">      0.50000000</i>
   <i name="SMASS">     -3.00000000</i>
   <i name="SCALEE">      1.00000000</i>
  </separator>
  <separator name="ionic md" >
   <i name="TEBEG">      0.00010000</i>
   <i name="TEEND">      0.00010000</i>
   <i type="int" name="NBLOCK">     1</i>
   <i type="int" name="KBLOCK">     1</i>
   <i type="int" name="NPACO">   256</i>
   <i name="APACO">     16.00000000</i>
  </separator>
  <separator name="symmetry" >
   <i type="int" name="ISYM">     0</i>
   <i name="SYMPREC">      0.00001000</i>
  </separator>
  <separator name="dos" >
   <i type="logical" name="LORBIT"> F  </i>
   <v name="RWIGS">     -1.00000000     -1.00000000     -1.00000000</v>
   <i type="int" name="NEDOS">   301</i>
   <i name="EMIN">     10.00000000</i>
   <i name="EMAX">    -10.00000000</i>
   <i name="EFERMI">      0.00000000</i>
  </separator>
  <separator name="writing" >
   <i type="int" name="NWRITE">     2</i>
   <i type="logical" name="LWAVE"> F  </i>
   <i type="logical" name="LCHARG"> T  </i>
   <i type="logical" name="LPARD"> F  </i>
   <i type="logical" name="LVTOT"> F  </i>
   <i type="logical" name="LVHAR"> F  </i>
   <i type="logical" name="LELF"> F  </i>
   <i type="logical" name="LOPTICS"> F  </i>
   <v name="STM">      0.00000000      0.00000000      0.00000000      0.00000000      0.00000000      0.00000000      0.00000000</v>
  </separator>
  <separator name="performance" >
   <i type="int" name="NPAR">     4</i>
   <i type="int" name="NSIM">     4</i>
   <i type="int" name="NBLK">    -1</i>
   <i type="logical" name="LPLANE"> T  </i>
   <i type="logical" name="LSCALAPACK"> T  </i>
   <i type="logical" name="LSCAAWARE"> F  </i>
   <i type="logical" name="LSCALU"> F  </i>
   <i type="logical" name="LASYNC"> F  </i>
   <i type="logical" name="LORBITALREAL"> F  </i>
  </separator>
  <separator name="miscellaneous" >
   <i type="int" name="IDIOT">     3</i>
   <i type="logical" name="LMUSIC"> F  </i>
   <v name="POMASS">     55.84700000     16.00000000     18.99800000</v>
   <v name="DARWINR">      0.00000000      0.00000000      0.00000000</v>
   <v name="DARWINV">      1.00000000      1.00000000      1.00000000</v>
   <i type="logical" name="LCORR"> T  </i>
  </separator>
  <i type="logical" name="GGA_COMPAT"> T  </i>
  <i type="logical" name="LBERRY"> F  </i>
  <i type="int" name="ICORELEVEL">     0</i>
  <i type="logical" name="LDAU"> F  </i>
  <i type="int" name="I_CONSTRAINED_M">     0</i>
  <separator name="electronic exchange-correlation" >
   <i type="string" name="GGA">--</i>
   <i type="int" name="VOSKOWN">     0</i>
   <i type="logical" name="LHFCALC"> F  </i>
   <i type="string" name="PRECFOCK"></i>
   <i type="logical" name="LSYMGRAD"> F  </i>
   <i type="logical" name="LHFONE"> F  </i>
   <i type="logical" name="LRHFCALC"> F  </i>
   <i type="logical" name="LTHOMAS"> F  </i>
   <i type="logical" name="LMODELHF"> F  </i>
   <i name="ENCUT4O">     -1.00000000</i>
   <i type="int" name="EXXOEP">     0</i>
   <i type="int" name="FOURORBIT">     0</i>
   <i name="AEXX">      0.00000000</i>
   <i name="HFALPHA">      0.00000000</i>
   <i name="MCALPHA">      0.00000000</i>
   <i name="ALDAX">      1.00000000</i>
   <i name="AGGAX">      1.00000000</i>
   <i name="ALDAC">      1.00000000</i>
   <i name="AGGAC">      1.00000000</i>
   <i type="int" name="NKREDX">     1</i>
   <i type="int" name="NKREDY">     1</i>
   <i type="int" name="NKREDZ">     1</i>
   <i type="logical" name="SHIFTRED"> F  </i>
   <i type="logical" name="ODDONLY"> F  </i>
   <i type="logical" name="EVENONLY"> F  </i>
   <i type="int" name="LMAXFOCK">     0</i>
   <i type="int" name="NMAXFOCKAE">     0</i>
   <i type="logical" name="LFOCKAEDFT"> F  </i>
   <i name="HFSCREEN">      0.00000000</i>
   <i name="HFSCREENC">      0.00000000</i>
   <i type="int" name="NBANDSGWLOW">     0</i>
  </separator>
  <separator name="vdW DFT" >
   <i type="logical" name="LUSE_VDW"> F  </i>
   <i name="Zab_VDW">     -0.84910000</i>
   <i name="PARAM1">      0.12340000</i>
   <i name="PARAM2">      1.00000000</i>
   <i name="PARAM3">      0.00000000</i>
  </separator>
  <separator name="model GW" >
   <i type="int" name="MODEL_GW">     0</i>
   <i name="MODEL_EPS0">      7.46882445</i>
   <i name="MODEL_ALPHA">      1.00000000</i>
  </separator>
  <separator name="linear response parameters" >
   <i type="logical" name="LEPSILON"> F  </i>
   <i type="logical" name="LRPA"> F  </i>
   <i type="logical" name="LNABLA"> F  </i>
   <i type="logical" name="LVEL"> F  </i>
   <i type="int" name="KINTER">     0</i>
   <i name="CSHIFT">      0.10000000</i>
   <i name="OMEGAMAX">     -1.00000000</i>
   <i name="DEG_THRESHOLD">      0.00200000</i>
  </separator>
  <separator name="orbital magnetization" >
   <i type="logical" name="NUCIND"> F  </i>
   <v name="MAGPOS">      0.00000000      0.00000000      0.00000000</v>
   <i type="logical" name="LNICSALL"> T  </i>
   <i type="logical" name="ORBITALMAG"> F  </i>
   <i type="logical" name="LMAGBLOCH"> F  </i>
   <i type="logical" name="LCHIMAG"> F  </i>
   <i type="logical" name="LGAUGE"> T  </i>
   <i type="int" name="MAGATOM">     0</i>
   <v name="MAGDIPOL">      0.00000000      0.00000000      0.00000000</v>
   <v name="AVECCONST">      0.00000000      0.00000000      0.00000000</v>
  </separator>
  <separator name="response functions" >
   <i type="logical" name="LADDER"> F  </i>
   <i type="logical" name="LFXC"> F  </i>
   <i type="logical" name="LHARTREE"> T  </i>
   <i type="int" name="IBSE">     0</i>
   <i type="logical" name="LTCTE"> F  </i>
   <i type="logical" name="LTETE"> F  </i>
   <i type="logical" name="LTRIPLET"> F  </i>
   <i type="logical" name="LFXCEPS"> F  </i>
   <i type="logical" name="LFXHEG"> F  </i>
   <i type="logical" name="L2ORDER"> F  </i>
   <i type="logical" name="LUSEW"> F  </i>
   <i name="ENCUTGW">     -2.00000000</i>
   <i name="ENCUTGWSOFT">     -2.00000000</i>
   <i name="ENCUTLF">     -1.00000000</i>
   <i type="int" name="LMAXMP2">    -1</i>
   <i name="SCISSOR">      0.00000000</i>
   <i type="int" name="NOMEGA">     0</i>
   <i type="int" name="NOMEGAR">     0</i>
   <i type="int" name="NBANDSGW">    -1</i>
   <i type="int" name="NBANDSO">    -1</i>
   <i type="int" name="NBANDSV">    -1</i>
   <i type="int" name="NELM">   300</i>
   <i type="int" name="DIM">     3</i>
   <i type="int" name="ANTIRES">     0</i>
   <i name="OMEGAMAX">    -30.00000000</i>
   <i name="OMEGAMIN">    -30.00000000</i>
   <i name="OMEGATL">   -200.00000000</i>
   <i type="int" name="OMEGAGRID">     0</i>
   <i name="CSHIFT">     -0.10000000</i>
   <i type="logical" name="SELFENERGY"> F  </i>
   <i type="logical" name="LSPECTRAL"> F  </i>
   <i type="logical" name="ODDONLYGW"> F  </i>
   <i type="logical" name="EVENONLYGW"> F  </i>
   <i type="int" name="NKREDLFX">     1</i>
   <i type="int" name="NKREDLFY">     1</i>
   <i type="int" name="NKREDLFZ">     1</i>
   <i type="int" name="MAXMEM">  1800</i>
   <i type="int" name="TELESCOPE">     0</i>
   <i type="int" name="TAUPAR">     1</i>
  </separator>
  <separator name="External order field" >
   <i name="OFIELD_KAPPA">      0.00000000</i>
   <v name="OFIELD_K">      0.00000000      0.00000000      0.00000000</v>
   <i name="OFIELD_Q6_NEAR">      0.00000000</i>
   <i name="OFIELD_Q6_FAR">      0.00000000</i>
   <i name="OFIELD_A">      0.00000000</i>
  </separator>
 </parameters>
 <atominfo>
  <atoms>      24 </atoms>
  <types>       3 </types>
  <array name="atoms" >
   <dimension dim="1">ion</dimension>
   <field type="string">element</field>
   <field type="int">atomtype</field>
   <set>
    <rc><c>Fe</c><c>   1</c></rc>
    <rc><c>Fe</c><c>   1</c></rc>
    <rc><c>Fe</c><c>   1</c></rc>
    <rc><c>Fe</c><c>   1</c></rc>
    <rc><c>Fe</c><c>   1</c></rc>
    <rc><c>Fe</c><c>   1</c></rc>
    <rc><c>Fe</c><c>   1</c></rc>
    <rc><c>Fe</c><c>   1</c></rc>
    <rc><c>O </c><c>   2</c></rc>
    <rc><c>O </c><c>   2</c></rc>
    <rc><c>F </c><c>   3</c></rc>
    <rc><c>F </c><c>   3</c></rc>
    <rc><c>F </c><c>   3</c></rc>
    <rc><c>F </c><c>   3</c></rc>
    <rc><c>F </c><c>   3</c></rc>
    <rc><c>F </c><c>   3</c></rc>
    <rc><c>F </c><c>   3</c></rc>
    <rc><c>F </c><c>   3</c></rc>
    <rc><c>F </c><c>   3</c></rc>
    <rc><c>F </c><c>   3</c></rc>
    <rc><c>F </c><c>   3</c></rc>
    <rc><c>F </c><c>   3</c></rc>
    <rc><c>F </c><c>   3</c></rc>
    <rc><c>F </c><c>   3</c></rc>
   </set>
  </array>
  <array name="atomtypes" >
   <dimension dim="1">type</dimension>
   <field type="int">atomspertype</field>
   <field type="string">element</field>
   <field>mass</field>
   <field>valence</field>
   <field type="string">pseudopotential</field>
   <set>
    <rc><c>   8</c><c>Fe</c><c>     55.84700000</c><c>      8.00000000</c><c>  PAW_PBE Fe 06Sep2000                  </c></rc>
    <rc><c>   2</c><c>O </c><c>     16.00000000</c><c>      6.00000000</c><c>  PAW_PBE O 08Apr2002                   </c></rc>
    <rc><c>  14</c><c>F </c><c>     18.99800000</c><c>      7.00000000</c><c>  PAW_PBE F 08Apr2002                   </c></rc>
   </set>
  </array>
 </atominfo>
 <structure name="initialpos" >
  <crystal>
   <varray name="basis" >
    <v>       5.73591900       0.00000000      -0.84282200 </v>
    <v>       0.00000000       4.78544200       0.00000000 </v>
    <v>       0.00000000       0.00000000      10.88396600 </v>
   </varray>
   <i name="volume">    298.75297805 </i>
   <varray name="rec_basis" >
    <v>       0.17433998       0.00000000       0.00000000 </v>
    <v>       0.00000000       0.20896711       0.00000000 </v>
    <v>       0.01350037       0.00000000       0.09187827 </v>
   </varray>
  </crystal>
  <varray name="positions" >
   <v>       0.24699400       0.24478500       0.75088200 </v>
   <v>       0.24699400       0.75149400       0.24063300 </v>
   <v>       0.51485700       0.24497600       0.49879200 </v>
   <v>       0.51485700       0.75502400       0.99879200 </v>
   <v>       0.75373900       0.23127500       0.26486200 </v>
   <v>       0.75373900       0.76872500       0.76486200 </v>
   <v>       0.99045900       0.24137200       0.99652900 </v>
   <v>       0.98572100       0.75862800       0.49652900 </v>
   <v>       0.77857200       0.05847800       0.41725200 </v>
   <v>       0.77857200       0.94152200       0.91725200 </v>
   <v>       0.01370000       0.05755600       0.18398300 </v>
   <v>       0.00536500       0.94244400       0.68278600 </v>
   <v>       0.22224900       0.44944100       0.57080400 </v>
   <v>       0.22224900       0.55055900       0.07749700 </v>
   <v>       0.27923300       0.05174700       0.92203700 </v>
   <v>       0.27923300       0.94825300       0.42203700 </v>
   <v>       0.48187500       0.45353000       0.31584000 </v>
   <v>       0.48187500       0.54647000       0.81584000 </v>
   <v>       0.52253600       0.04264500       0.67416600 </v>
   <v>       0.52253600       0.96440000       0.17416600 </v>
   <v>       0.72235300       0.44302000       0.09109400 </v>
   <v>       0.72235300       0.55698000       0.59109400 </v>
   <v>       0.97343300       0.45650500       0.82557900 </v>
   <v>       0.97343300       0.54349500       0.31960400 </v>
  </varray>
 </structure>
 <calculation>
  <scstep>
   <time name="diag">    0.26    0.34</time>
   <time name="diis">    0.11    0.16</time>
   <time name="orth">    0.02    0.02</time>
   <time name="total">    0.63    0.86</time>
   <energy>
    <i name="alphaZ">    634.09262729 </i>
    <i name="ewald"> -10609.11438442 </i>
    <i name="hartreedc">  -4393.16510369 </i>
    <i name="XCdc">    595.50819640 </i>
    <i name="pawpsdc">  12680.77512887 </i>
    <i name="pawaedc"> -12817.41364524 </i>
    <i name="eentropy">      0.00339756 </i>
    <i name="bandstr">   1169.95624182 </i>
    <i name="atom">  14851.27451460 </i>
    <i name="e_fr_energy">   2111.91697317 </i>
    <i name="e_wo_entrp">   2111.91357562 </i>
    <i name="e_0_energy">   2111.91584065 </i>
   </energy>
  </scstep>
  <scstep>
   <time name="diag">    0.07    0.07</time>
   <time name="diis">    0.11    0.16</time>
   <time name="orth">    0.02    0.02</time>
   <time name="total">    0.22    0.27</time>
   <energy>
    <i name="e_fr_energy">    649.75422048 </i>
    <i name="e_wo_entrp">    649.84216959 </i>
    <i name="e_0_energy">    649.78353685 </i>
   </energy>
  </scstep>
  <scstep>
   <time name="diag">    0.04    0.06</time>
   <time name="diis">    0.13    0.16</time>
   <time name="orth">    0.01    0.02</time>
   <time name="total">    0.18    0.24</time>
   <energy>
    <i name="e_fr_energy">    226.03804709 </i>
    <i name="e_wo_entrp">    226.18454387 </i>
    <i name="e_0_energy">    226.08687935 </i>
   </energy>
  </scstep>
  <scstep>
   <time name="diag">    0.32    0.40</time>
   <time name="diis">    0.18    0.18</time>
   <time name="orth">    0.06    0.06</time>
   <time name="total">    0.55    0.64</time>
   <energy>
    <i name="e_fr_energy">     43.36047711 </i>
    <i name="e_wo_entrp">     43.37668451 </i>
    <i name="e_0_energy">     43.36587958 </i>
   </energy>
  </scstep>
  <scstep>
   <time name="diag">    0.27    0.27</time>
   <time name="diis">    0.24    0.24</time>
   <time name="orth">    0.12    0.19</time>
   <time name="total">    0.63    0.70</time>
   <energy>
    <i name="e_fr_energy">    -63.20905383 </i>
    <i name="e_wo_entrp">    -63.18611397 </i>
    <i name="e_0_energy">    -63.20140721 </i>
   </energy>
  </scstep>
  <scstep>
   <time name="diag">    0.13    0.13</time>
   <time name="diis">    0.22    0.22</time>
   <time name="orth">    0.04    0.04</time>
   <time name="total">    0.39    0.39</time>
   <energy>
    <i name="e_fr_energy">   -112.11039078 </i>
    <i name="e_wo_entrp">   -112.15951032 </i>
    <i name="e_0_energy">   -112.12676396 </i>
   </energy>
  </scstep>
  <scstep>
   <time name="diag">    0.11    0.12</time>
   <time name="diis">    0.09    0.16</time>
   <time name="orth">    0.01    0.02</time>
   <time name="total">    0.21    0.30</time>
   <energy>
    <i name="e_fr_energy">   -136.24241716 </i>
    <i name="e_wo_entrp">   -136.31662690 </i>
    <i name="e_0_energy">   -136.26715374 </i>
   </energy>
  </scstep>
  <scstep>
   <time name="diag">    0.05    0.06</time>
   <time name="diis">    0.16    0.20</time>
   <time name="orth">    0.02    0.02</time>
   <time name="total">    0.23    0.28</time>
   <energy>
    <i name="e_fr_energy">   -145.98031228 </i>
    <i name="e_wo_entrp">   -146.05603913 </i>
    <i name="e_0_energy">   -146.00555456 </i>
   </energy>
  </scstep>
  <scstep>
   <time name="diag">    0.16    0.29</time>
   <time name="diis">    0.41    0.50</time>
   <time name="orth">    0.02    0.02</time>
   <time name="total">    0.60    0.81</time>
   <energy>
    <i name="e_fr_energy">   -155.42958253 </i>
    <i name="e_wo_entrp">   -155.51126648 </i>
    <i name="e_0_energy">   -155.45681051 </i>
   </energy>
  </scstep>
  <scstep>
   <time name="diag">    0.08    0.09</time>
   <time name="diis">    0.37    0.53</time>
   <time name="orth">    0.07    0.14</time>
   <time name="total">    0.52    0.77</time>
   <energy>
    <i name="e_fr_energy">   -155.63610012 </i>
    <i name="e_wo_entrp">   -155.70625432 </i>
    <i name="e_0_energy">   -155.65948485 </i>
   </energy>
  </scstep>
  <scstep>
   <time name="diag">    0.18    0.27</time>
   <time name="diis">    0.33    0.52</time>
   <time name="orth">    0.05    0.05</time>
   <time name="total">    0.55    0.84</time>
   <energy>
    <i name="e_fr_energy">   -155.82824112 </i>
    <i name="e_wo_entrp">   -155.89517769 </i>
    <i name="e_0_energy">   -155.85055331 </i>
   </energy>
  </scstep>
  <scstep>
   <time name="diag">    0.27    0.48</time>
   <time name="diis">    0.39    0.46</time>
   <time name="orth">    0.02    0.02</time>
   <time name="total">    0.77    1.05</time>
   <energy>
    <i name="e_fr_energy">   -155.94739995 </i>
    <i name="e_wo_entrp">   -156.00214340 </i>
    <i name="e_0_energy">   -155.96564777 </i>
   </energy>
  </scstep>
  <scstep>
   <time name="diag">    0.08    0.09</time>
   <time name="diis">    0.24    0.42</time>
   <time name="orth">    0.02    0.02</time>
   <time name="total">    0.48    0.72</time>
   <energy>
    <i name="e_fr_energy">   -150.02253083 </i>
    <i name="e_wo_entrp">   -150.04628161 </i>
    <i name="e_0_energy">   -150.03044776 </i>
   </energy>
  </scstep>
  <scstep>
   <time name="diag">    0.12    0.20</time>
   <time name="diis">    0.21    0.29</time>
   <time name="orth">    0.07    0.13</time>
   <time name="total">    0.52    0.83</time>
   <energy>
    <i name="e_fr_energy">   -178.20754781 </i>
    <i name="e_wo_entrp">   -178.21354137 </i>
    <i name="e_0_energy">   -178.20954566 </i>
   </energy>
  </scstep>
  <scstep>
   <time name="diag">    0.19    0.33</time>
   <time name="diis">    0.34    0.45</time>
   <time name="orth">    0.04    0.04</time>
   <time name="total">    0.73    1.04</time>
   <energy>
    <i name="e_fr_energy">   -154.38283526 </i>
    <i name="e_wo_entrp">   -154.48168451 </i>
    <i name="e_0_energy">   -154.41578501 </i>
   </energy>
  </scstep>
  <scstep>
   <time name="diag">    0.22    0.38</time>
   <time name="diis">    0.25    0.39</time>
   <time name="orth">    0.10    0.18</time>
   <time name="total">    0.70    1.11</time>
   <energy>
    <i name="e_fr_energy">   -139.87476305 </i>
    <i name="e_wo_entrp">   -139.87469979 </i>
    <i name="e_0_energy">   -139.87474197 </i>
   </energy>
  </scstep>
  <scstep>
   <time name="diag">    0.26    0.28</time>
   <time name="diis">    0.25    0.41</time>
   <time name="orth">    0.02    0.02</time>
   <time name="total">    0.61    0.81</time>
   <energy>
    <i name="e_fr_energy">   -143.62466935 </i>
    <i name="e_wo_entrp">   -143.66047247 </i>
    <i name="e_0_energy">   -143.63660372 </i>
   </energy>
  </scstep>
  <scstep>
   <time name="diag">    0.06    0.06</time>
   <time name="diis">    0.35    0.54</time>
   <time name="orth">    0.11    0.19</time>
   <time name="total">    0.69    0.99</time>
   <energy>
    <i name="e_fr_energy">   -153.63519669 </i>
    <i name="e_wo_entrp">   -153.62974333 </i>
    <i name="e_0_energy">   -153.63337890 </i>
   </energy>
  </scstep>
  <scstep>
   <time name="diag">    0.22    0.32</time>
   <time name="diis">    0.30    0.41</time>
   <time name="orth">    0.01    0.01</time>
   <time name="total">    0.75    1.06</time>
   <energy>
    <i name="e_fr_energy">   -146.61852170 </i>
    <i name="e_wo_entrp">   -146.52982331 </i>
    <i name="e_0_energy">   -146.58895557 </i>
   </energy>
  </scstep>
  <scstep>
   <time name="diag">    0.15    0.32</time>
   <time name="diis">    0.31    0.46</time>
   <time name="orth">    0.06    0.09</time>
   <time name="total">    0.60    0.95</time>
   <energy>
    <i name="e_fr_energy">   -143.74484121 </i>
    <i name="e_wo_entrp">   -143.73932834 </i>
    <i name="e_0_energy">   -143.74300359 </i>
   </energy>
  </scstep>
  <scstep>
   <time name="diag">    0.08    0.12</time>
   <time name="diis">    0.26    0.39</time>
   <time name="orth">    0.02    0.04</time>
   <time name="total">    0.49    0.73</time>
   <energy>
    <i name="e_fr_energy">   -138.83392627 </i>
    <i name="e_wo_entrp">   -138.84330668 </i>
    <i name="e_0_energy">   -138.83705307 </i>
   </energy>
  </scstep>
  <scstep>
   <time name="diag">    0.13    0.23</time>
   <time name="diis">    0.26    0.38</time>
   <time name="orth">    0.03    0.05</time>
   <time name="total">    0.63    0.96</time>
   <energy>
    <i name="e_fr_energy">   -141.50664638 </i>
    <i name="e_wo_entrp">   -141.44857459 </i>
    <i name="e_0_energy">   -141.48728912 </i>
   </energy>
  </scstep>
  <scstep>
   <time name="diag">    0.15    0.18</time>
   <time name="diis">    0.24    0.37</time>
   <time name="orth">    0.03    0.03</time>
   <time name="total">    0.54    0.73</time>
   <energy>
    <i name="e_fr_energy">   -136.46164606 </i>
    <i name="e_wo_entrp">   -136.49122556 </i>
    <i name="e_0_energy">   -136.47150589 </i>
   </energy>
  </scstep>
  <scstep>
   <time name="diag">    0.10    0.17</time>
   <time name="diis">    0.25    0.44</time>
   <time name="orth">    0.02    0.02</time>
   <time name="total">    0.53    0.79</time>
   <energy>
    <i name="e_fr_energy">   -141.76232318 </i>
    <i name="e_wo_entrp">   -141.78757728 </i>
    <i name="e_0_energy">   -141.77074121 </i>
   </energy>
  </scstep>
  <scstep>
   <time name="diag">    0.10    0.13</time>
   <time name="diis">    0.24    0.37</time>
   <time name="orth">    0.11    0.18</time>
   <time name="total">    0.62    1.02</time>
   <energy>
    <i name="e_fr_energy">   -133.44729213 </i>
    <i name="e_wo_entrp">   -133.51901368 </i>
    <i name="e_0_energy">   -133.47119931 </i>
   </energy>
  </scstep>
  <scstep>
   <time name="diag">    0.11    0.11</time>
   <time name="diis">    0.27    0.42</time>
   <time name="orth">    0.01    0.01</time>
   <time name="total">    0.76    1.02</time>
   <energy>
    <i name="e_fr_energy">   -132.42111850 </i>
    <i name="e_wo_entrp">   -132.41987620 </i>
    <i name="e_0_energy">   -132.42070440 </i>
   </energy>
  </scstep>
  <scstep>
   <time name="diag">    0.08    0.14</time>
   <time name="diis">    0.49    0.56</time>
   <time name="orth">    0.20    0.37</time>
   <time name="total">    0.89    1.22</time>
   <energy>
    <i name="e_fr_energy">   -132.22196618 </i>
    <i name="e_wo_entrp">   -132.23245833 </i>
    <i name="e_0_energy">   -132.22546356 </i>
   </energy>
  </scstep>
  <scstep>
   <time name="diag">    0.06    0.06</time>
   <time name="diis">    0.33    0.48</time>
   <time name="orth">    0.01    0.01</time>
   <time name="total">    0.52    0.67</time>
   <energy>
    <i name="e_fr_energy">   -132.24485206 </i>
    <i name="e_wo_entrp">   -132.22376084 </i>
    <i name="e_0_energy">   -132.23782166 </i>
   </energy>
  </scstep>
  <scstep>
   <time name="diag">    0.08    0.08</time>
   <time name="diis">    0.30    0.40</time>
   <time name="orth">    0.01    0.01</time>
   <time name="total">    0.53    0.72</time>
   <energy>
    <i name="e_fr_energy">   -132.38797871 </i>
    <i name="e_wo_entrp">   -132.40413011 </i>
    <i name="e_0_energy">   -132.39336251 </i>
   </energy>
  </scstep>
  <scstep>
   <time name="diag">    0.09    0.11</time>
   <time name="diis">    0.26    0.46</time>
   <time name="orth">    0.01    0.01</time>
   <time name="total">    0.61    1.02</time>
   <energy>
    <i name="e_fr_energy">   -132.44604141 </i>
    <i name="e_wo_entrp">   -132.46537217 </i>
    <i name="e_0_energy">   -132.45248500 </i>
   </energy>
  </scstep>
  <scstep>
   <time name="diag">    0.08    0.09</time>
   <time name="diis">    0.28    0.40</time>
   <time name="orth">    0.07    0.14</time>
   <time name="total">    0.62    0.90</time>
   <energy>
    <i name="e_fr_energy">   -132.43645493 </i>
    <i name="e_wo_entrp">   -132.44001076 </i>
    <i name="e_0_energy">   -132.43764021 </i>
   </energy>
  </scstep>
  <scstep>
   <time name="diag">    0.24    0.33</time>
   <time name="diis">    0.32    0.39</time>
   <time name="orth">    0.02    0.04</time>
   <time name="total">    0.78    1.17</time>
   <energy>
    <i name="e_fr_energy">   -132.44410770 </i>
    <i name="e_wo_entrp">   -132.45498351 </i>
    <i name="e_0_energy">   -132.44773297 </i>
   </energy>
  </scstep>
  <scstep>
   <time name="diag">    0.16    0.22</time>
   <time name="diis">    0.40    0.46</time>
   <time name="orth">    0.03    0.03</time>
   <time name="total">    0.74    0.90</time>
   <energy>
    <i name="e_fr_energy">   -132.43112233 </i>
    <i name="e_wo_entrp">   -132.43848140 </i>
    <i name="e_0_energy">   -132.43357535 </i>
   </energy>
  </scstep>
  <scstep>
   <time name="diag">    0.08    0.11</time>
   <time name="diis">    0.35    0.44</time>
   <time name="orth">    0.01    0.02</time>
   <time name="total">    0.66    0.89</time>
   <energy>
    <i name="e_fr_energy">   -132.42966399 </i>
    <i name="e_wo_entrp">   -132.44050319 </i>
    <i name="e_0_energy">   -132.43327706 </i>
   </energy>
  </scstep>
  <scstep>
   <time name="diag">    0.06    0.10</time>
   <time name="diis">    0.21    0.34</time>
   <time name="orth">    0.01    0.02</time>
   <time name="total">    0.52    0.81</time>
   <energy>
    <i name="e_fr_energy">   -132.42633462 </i>
    <i name="e_wo_entrp">   -132.43805450 </i>
    <i name="e_0_energy">   -132.43024125 </i>
   </energy>
  </scstep>
  <scstep>
   <time name="diag">    0.08    0.09</time>
   <time name="diis">    0.23    0.34</time>
   <time name="orth">    0.05    0.05</time>
   <time name="total">    0.52    0.80</time>
   <energy>
    <i name="e_fr_energy">   -132.42643763 </i>
    <i name="e_wo_entrp">   -132.43817264 </i>
    <i name="e_0_energy">   -132.43034930 </i>
   </energy>
  </scstep>
  <scstep>
   <time name="diag">    0.11    0.19</time>
   <time name="diis">    0.17    0.26</time>
   <time name="orth">    0.05    0.08</time>
   <time name="total">    0.42    0.70</time>
   <energy>
    <i name="e_fr_energy">   -132.42539470 </i>
    <i name="e_wo_entrp">   -132.43778938 </i>
    <i name="e_0_energy">   -132.42952626 </i>
   </energy>
  </scstep>
  <scstep>
   <time name="diag">    0.33    0.51</time>
   <time name="diis">    0.29    0.32</time>
   <time name="orth">    0.01    0.02</time>
   <time name="total">    0.85    1.15</time>
   <energy>
    <i name="e_fr_energy">   -132.42582932 </i>
    <i name="e_wo_entrp">   -132.43751316 </i>
    <i name="e_0_energy">   -132.42972394 </i>
   </energy>
  </scstep>
  <scstep>
   <time name="diag">    0.07    0.09</time>
   <time name="diis">    0.16    0.22</time>
   <time name="orth">    0.02    0.02</time>
   <time name="total">    0.51    0.67</time>
   <energy>
    <i name="e_fr_energy">   -132.42559440 </i>
    <i name="e_wo_entrp">   -132.43799606 </i>
    <i name="e_0_energy">   -132.42972828 </i>
   </energy>
  </scstep>
  <scstep>
   <time name="diag">    0.14    0.16</time>
   <time name="diis">    0.23    0.26</time>
   <time name="orth">    0.10    0.11</time>
   <time name="total">    0.61    0.68</time>
   <energy>
    <i name="e_fr_energy">   -132.42622989 </i>
    <i name="e_wo_entrp">   -132.43850262 </i>
    <i name="e_0_energy">   -132.43032080 </i>
   </energy>
  </scstep>
  <scstep>
   <time name="diag">    0.11    0.18</time>
   <time name="diis">    0.20    0.25</time>
   <time name="orth">    0.05    0.05</time>
   <time name="total">    0.47    0.69</time>
   <energy>
    <i name="alphaZ">    634.09262729 </i>
    <i name="ewald"> -10609.11438442 </i>
    <i name="hartreedc">  -4472.31231726 </i>
    <i name="XCdc">    604.71085761 </i>
    <i name="pawpsdc">  14877.57623336 </i>
    <i name="pawaedc"> -15018.28013477 </i>
    <i name="eentropy">      0.01289549 </i>
    <i name="bandstr">  -1000.38650776 </i>
    <i name="atom">  14851.27451460 </i>
    <i name="e_fr_energy">   -132.42621586 </i>
    <i name="e_wo_entrp">   -132.43911134 </i>
    <i name="e_0_energy">   -132.43051435 </i>
   </energy>
  </scstep>
  <structure>
   <crystal>
    <varray name="basis" >
     <v>       5.73591900       0.00000000      -0.84282200 </v>
     <v>       0.00000000       4.78544200       0.00000000 </v>
     <v>       0.00000000       0.00000000      10.88396600 </v>
    </varray>
    <i name="volume">    298.75297805 </i>
    <varray name="rec_basis" >
     <v>       0.17433998       0.00000000       0.00000000 </v>
     <v>       0.00000000       0.20896711       0.00000000 </v>
     <v>       0.01350037       0.00000000       0.09187827 </v>
    </varray>
   </crystal>
   <varray name="positions" >
    <v>       0.24699400       0.24478500       0.75088200 </v>
    <v>       0.24699400       0.75149400       0.24063300 </v>
    <v>       0.51485700       0.24497600       0.49879200 </v>
    <v>       0.51485700       0.75502400       0.99879200 </v>
    <v>       0.75373900       0.23127500       0.26486200 </v>
    <v>       0.75373900       0.76872500       0.76486200 </v>
    <v>       0.99045900       0.24137200       0.99652900 </v>
    <v>       0.98572100       0.75862800       0.49652900 </v>
    <v>       0.77857200       0.05847800       0.41725200 </v>
    <v>       0.77857200       0.94152200       0.91725200 </v>
    <v>       0.01370000       0.05755600       0.18398300 </v>
    <v>       0.00536500       0.94244400       0.68278600 </v>
    <v>       0.22224900       0.44944100       0.57080400 </v>
    <v>       0.22224900       0.55055900       0.07749700 </v>
    <v>       0.27923300       0.05174700       0.92203700 </v>
    <v>       0.27923300       0.94825300       0.42203700 </v>
    <v>       0.48187500       0.45353000       0.31584000 </v>
    <v>       0.48187500       0.54647000       0.81584000 </v>
    <v>       0.52253600       0.04264500       0.67416600 </v>
    <v>       0.52253600       0.96440000       0.17416600 </v>
    <v>       0.72235300       0.44302000       0.09109400 </v>
    <v>       0.72235300       0.55698000       0.59109400 </v>
    <v>       0.97343300       0.45650500       0.82557900 </v>
    <v>       0.97343300       0.54349500       0.31960400 </v>
   </varray>
  </structure>
  <varray name="forces" >
   <v>       0.10304942       0.14143809      -0.70787147 </v>
   <v>       0.15223611       0.09457785       0.67631248 </v>
   <v>       0.79283569      -0.71396688      -0.74002678 </v>
   <v>       1.05778406       0.76063764      -0.77124847 </v>
   <v>       0.12912198       0.32250682      -0.04436554 </v>
   <v>      -0.05203907      -0.21584138      -0.06288928 </v>
   <v>      -1.09396554      -1.25438478      -0.40356976 </v>
   <v>      -0.62354071       1.21997043      -0.82357071 </v>
   <v>      -0.50241020      -0.24968324       1.42961500 </v>
   <v>      -0.39341803       0.21793839       1.23917675 </v>
   <v>       0.25893067      -0.38525915      -0.21248183 </v>
   <v>       0.52916958       0.41208784       0.11469293 </v>
   <v>      -0.03168608      -0.16886503       0.36302609 </v>
   <v>       0.00893310       0.09546397      -0.23129757 </v>
   <v>      -0.18639963       0.21958338       0.04276844 </v>
   <v>      -0.22776481      -0.21622846      -0.10359448 </v>
   <v>      -0.17531487      -0.11488822       0.42396442 </v>
   <v>      -0.24026720       0.10027643       0.72643555 </v>
   <v>      -0.28655713       0.45969060       0.21033921 </v>
   <v>      -0.31552260      -0.68662471       0.05217119 </v>
   <v>       0.16495817       0.05764526      -0.89901504 </v>
   <v>       0.16902138      -0.07849816      -0.89472551 </v>
   <v>       0.41135780      -0.37995030       0.24578692 </v>
   <v>       0.35148788       0.36237360       0.37036745 </v>
  </varray>
  <varray name="stress" >
   <v>    -244.45750534       0.82776972      23.05314187 </v>
   <v>       0.82776963    -259.61698584       0.78879730 </v>
   <v>      23.05314162       0.78879511    -287.91815556 </v>
  </varray>
  <energy>
   <i name="e_fr_energy">   -132.42621586 </i>
   <i name="e_wo_entrp">   -132.43051435 </i>
   <i name="e_0_energy">      0.01289549 </i>
  </energy>
  <time name="totalsc">   25.02   35.11</time>
  <eigenvalues>
   <array>
    <dimension dim="1">band</dimension>
    <dimension dim="2">kpoint</dimension>
    <dimension dim="3">spin</dimension>
    <field>eigene</field>
    <field>occ</field>
    <set>
     <set comment="spin 1">
      <set comment="kpoint 1">
       <r>  -22.6984    1.0000 </r>
       <r>  -22.6127    1.0000 </r>
       <r>  -22.3998    1.0000 </r>
       <r>  -22.3467    1.0000 </r>
       <r>  -22.2966    1.0000 </r>
       <r>  -22.2791    1.0000 </r>
       <r>  -22.2249    1.0000 </r>
       <r>  -22.1833    1.0000 </r>
       <r>  -22.1513    1.0000 </r>
       <r>  -22.1101    1.0000 </r>
       <r>  -21.9388    1.0000 </r>
       <r>  -21.8854    1.0000 </r>
       <r>  -21.8577    1.0000 </r>
       <r>  -21.7024    1.0000 </r>
       <r>  -16.7366    1.0000 </r>
       <r>  -16.7270    1.0000 </r>
       <r>   -6.1171    1.0000 </r>
       <r>   -5.7660    1.0000 </r>
       <r>   -5.3487    1.0000 </r>
       <r>   -5.2247    1.0000 </r>
       <r>   -5.1996    1.0000 </r>
       <r>   -5.0897    1.0000 </r>
       <r>   -4.9930    1.0000 </r>
       <r>   -4.9033    1.0000 </r>
       <r>   -4.8514    1.0000 </r>
       <r>   -4.7907    1.0000 </r>
       <r>   -4.7082    1.0000 </r>
       <r>   -4.5899    1.0000 </r>
       <r>   -4.5642    1.0000 </r>
       <r>   -4.5453    1.0000 </r>
       <r>   -4.4654    1.0000 </r>
       <r>   -4.4432    1.0000 </r>
       <r>   -4.3567    1.0000 </r>
       <r>   -4.3322    1.0000 </r>
       <r>   -4.2422    1.0000 </r>
       <r>   -4.2055    1.0000 </r>
       <r>   -4.1828    1.0000 </r>
       <r>   -4.1490    1.0000 </r>
       <r>   -4.0213    1.0000 </r>
       <r>   -3.9953    1.0000 </r>
       <r>   -3.9633    1.0000 </r>
       <r>   -3.9159    1.0000 </r>
       <r>   -3.8468    1.0000 </r>
       <r>   -3.8312    1.0000 </r>
       <r>   -3.7228    1.0000 </r>
       <r>   -3.6301    1.0000 </r>
       <r>   -3.4516    1.0000 </r>
       <r>   -3.4099    1.0000 </r>
       <r>   -3.3127    1.0000 </r>
       <r>   -3.2053    1.0000 </r>
       <r>   -3.1156    1.0000 </r>
       <r>   -3.0178    1.0000 </r>
       <r>   -2.9869    1.0000 </r>
       <r>   -2.9110    1.0000 </r>
       <r>   -2.8503    1.0000 </r>
       <r>   -2.7323    1.0000 </r>
       <r>   -2.7098    1.0000 </r>
       <r>   -2.6698    1.0000 </r>
       <r>   -2.5167    1.0000 </r>
       <r>   -2.4271    1.0000 </r>
       <r>   -2.3134    1.0000 </r>
       <r>   -2.2645    1.0000 </r>
       <r>   -1.5713    1.0000 </r>
       <r>   -1.5483    1.0000 </r>
       <r>    0.9065    1.0000 </r>
       <r>    0.9330    1.0000 </r>
       <r>    0.9999    1.0000 </r>
       <r>    1.0144    1.0001 </r>
       <r>    1.0462    1.0001 </r>
       <r>    1.0548    1.0002 </r>
       <r>    1.0801    1.0003 </r>
       <r>    1.1134    1.0007 </r>
       <r>    1.1662    1.0023 </r>
       <r>    1.1877    1.0036 </r>
       <r>    1.2489    1.0102 </r>
       <r>    1.2637    1.0127 </r>
       <r>    1.3026    1.0207 </r>
       <r>    1.3196    1.0246 </r>
       <r>    1.3635    1.0335 </r>
       <r>    1.4037    1.0344 </r>
       <r>    1.4306    1.0264 </r>
       <r>    1.4377    1.0226 </r>
       <r>    1.4813    0.9789 </r>
       <r>    1.5215    0.9004 </r>
       <r>    1.5443    0.8377 </r>
       <r>    1.5637    0.7750 </r>
       <r>    1.5826    0.7062 </r>
       <r>    1.6672    0.3582 </r>
       <r>    1.6686    0.3523 </r>
       <r>    1.8081   -0.0068 </r>
       <r>    1.8783   -0.0355 </r>
       <r>    1.9311   -0.0281 </r>
       <r>    1.9636   -0.0207 </r>
       <r>    2.0379   -0.0074 </r>
       <r>    2.1166   -0.0017 </r>
       <r>    2.1447   -0.0009 </r>
       <r>    2.3946   -0.0000 </r>
       <r>    2.4416   -0.0000 </r>
       <r>    2.7578   -0.0000 </r>
       <r>    2.8441   -0.0000 </r>
       <r>    2.9153   -0.0000 </r>
       <r>    2.9331   -0.0000 </r>
       <r>    3.0638   -0.0000 </r>
       <r>    3.2329   -0.0000 </r>
      </set>
     </set>
    </set>
   </array>
  </eigenvalues>
  <separator name="orbital magnetization" >
   <v name="MAGDIPOLOUT">      0.00000000      0.00000000      0.00000000</v>
  </separator>
  <dos>
   <i name="efermi">      1.63310308 </i>
   <total>
    <array>
     <dimension dim="1">gridpoints</dimension>
     <dimension dim="2">spin</dimension>
     <field>energy</field>
     <field>total</field>
     <field>integrated</field>
     <set>
      <set comment="spin 1">
       <r>   -24.6984     0.0000     0.0000 </r>
       <r>   -24.5986     0.0000     0.0000 </r>
       <r>   -24.4988     0.0000     0.0000 </r>
       <r>   -24.3991     0.0000     0.0000 </r>
       <r>   -24.2993    -0.0000    -0.0000 </r>
       <r>   -24.1995    -0.0000    -0.0000 </r>
       <r>   -24.0997    -0.0000    -0.0000 </r>
       <r>   -24.0000    -0.0000    -0.0000 </r>
       <r>   -23.9002    -0.0000    -0.0000 </r>
       <r>   -23.8004    -0.0000    -0.0000 </r>
       <r>   -23.7007    -0.0000    -0.0000 </r>
       <r>   -23.6009    -0.0000    -0.0000 </r>
       <r>   -23.5011    -0.0000    -0.0000 </r>
       <r>   -23.4014    -0.0001    -0.0000 </r>
       <r>   -23.3016    -0.0018    -0.0002 </r>
       <r>   -23.2018    -0.0222    -0.0024 </r>
       <r>   -23.1020    -0.1564    -0.0180 </r>
       <r>   -23.0023    -0.5475    -0.0726 </r>
       <r>   -22.9025    -0.4453    -0.1171 </r>
       <r>   -22.8027     2.9084     0.1731 </r>
       <r>   -22.7030     9.9068     1.1615 </r>
       <r>   -22.6032    13.7234     2.5307 </r>
       <r>   -22.5034    12.9036     3.8181 </r>
       <r>   -22.4036    19.4922     5.7629 </r>
       <r>   -22.3039    36.0950     9.3641 </r>
       <r>   -22.2041    46.3450    13.9880 </r>
       <r>   -22.1043    39.5206    17.9310 </r>
       <r>   -22.0046    26.9331    20.6181 </r>
       <r>   -21.9048    23.5667    22.9694 </r>
       <r>   -21.8050    23.6011    25.3241 </r>
       <r>   -21.7052    17.3586    27.0560 </r>
       <r>   -21.6055     8.4645    27.9005 </r>
       <r>   -21.5057     2.0982    28.1098 </r>
       <r>   -21.4059    -0.4199    28.0679 </r>
       <r>   -21.3062    -0.4997    28.0181 </r>
       <r>   -21.2064    -0.1551    28.0026 </r>
       <r>   -21.1066    -0.0239    28.0002 </r>
       <r>   -21.0069    -0.0020    28.0000 </r>
       <r>   -20.9071    -0.0001    28.0000 </r>
       <r>   -20.8073    -0.0000    28.0000 </r>
       <r>   -20.7075    -0.0000    28.0000 </r>
       <r>   -20.6078    -0.0000    28.0000 </r>
       <r>   -20.5080    -0.0000    28.0000 </r>
       <r>   -20.4082    -0.0000    28.0000 </r>
       <r>   -20.3085     0.0000    28.0000 </r>
       <r>   -20.2087     0.0000    28.0000 </r>
       <r>   -20.1089     0.0000    28.0000 </r>
       <r>   -20.0091     0.0000    28.0000 </r>
       <r>   -19.9094     0.0000    28.0000 </r>
       <r>   -19.8096     0.0000    28.0000 </r>
       <r>   -19.7098     0.0000    28.0000 </r>
       <r>   -19.6101     0.0000    28.0000 </r>
       <r>   -19.5103     0.0000    28.0000 </r>
       <r>   -19.4105     0.0000    28.0000 </r>
       <r>   -19.3107     0.0000    28.0000 </r>
       <r>   -19.2110     0.0000    28.0000 </r>
       <r>   -19.1112     0.0000    28.0000 </r>
       <r>   -19.0114     0.0000    28.0000 </r>
       <r>   -18.9117     0.0000    28.0000 </r>
       <r>   -18.8119     0.0000    28.0000 </r>
       <r>   -18.7121     0.0000    28.0000 </r>
       <r>   -18.6124     0.0000    28.0000 </r>
       <r>   -18.5126     0.0000    28.0000 </r>
       <r>   -18.4128    -0.0000    28.0000 </r>
       <r>   -18.3130    -0.0000    28.0000 </r>
       <r>   -18.2133    -0.0000    28.0000 </r>
       <r>   -18.1135    -0.0000    28.0000 </r>
       <r>   -18.0137    -0.0000    28.0000 </r>
       <r>   -17.9140    -0.0000    28.0000 </r>
       <r>   -17.8142    -0.0000    28.0000 </r>
       <r>   -17.7144    -0.0000    28.0000 </r>
       <r>   -17.6146    -0.0000    28.0000 </r>
       <r>   -17.5149    -0.0000    28.0000 </r>
       <r>   -17.4151    -0.0003    28.0000 </r>
       <r>   -17.3153    -0.0056    27.9994 </r>
       <r>   -17.2156    -0.0606    27.9934 </r>
       <r>   -17.1158    -0.3458    27.9589 </r>
       <r>   -17.0160    -0.8284    27.8762 </r>
       <r>   -16.9163     0.6459    27.9406 </r>
       <r>   -16.8165     7.6168    28.7006 </r>
       <r>   -16.7167    15.5764    30.2546 </r>
       <r>   -16.6169    13.8010    31.6316 </r>
       <r>   -16.5172     4.9356    32.1240 </r>
       <r>   -16.4174    -0.2665    32.0974 </r>
       <r>   -16.3176    -0.7227    32.0253 </r>
       <r>   -16.2179    -0.2198    32.0034 </r>
       <r>   -16.1181    -0.0314    32.0003 </r>
       <r>   -16.0183    -0.0024    32.0000 </r>
       <r>   -15.9185    -0.0001    32.0000 </r>
       <r>   -15.8188    -0.0000    32.0000 </r>
       <r>   -15.7190    -0.0000    32.0000 </r>
       <r>   -15.6192    -0.0000    32.0000 </r>
       <r>   -15.5195    -0.0000    32.0000 </r>
       <r>   -15.4197    -0.0000    32.0000 </r>
       <r>   -15.3199     0.0000    32.0000 </r>
       <r>   -15.2201     0.0000    32.0000 </r>
       <r>   -15.1204     0.0000    32.0000 </r>
       <r>   -15.0206     0.0000    32.0000 </r>
       <r>   -14.9208     0.0000    32.0000 </r>
       <r>   -14.8211     0.0000    32.0000 </r>
       <r>   -14.7213     0.0000    32.0000 </r>
       <r>   -14.6215     0.0000    32.0000 </r>
       <r>   -14.5218     0.0000    32.0000 </r>
       <r>   -14.4220     0.0000    32.0000 </r>
       <r>   -14.3222     0.0000    32.0000 </r>
       <r>   -14.2224     0.0000    32.0000 </r>
       <r>   -14.1227     0.0000    32.0000 </r>
       <r>   -14.0229     0.0000    32.0000 </r>
       <r>   -13.9231     0.0000    32.0000 </r>
       <r>   -13.8234     0.0000    32.0000 </r>
       <r>   -13.7236     0.0000    32.0000 </r>
       <r>   -13.6238     0.0000    32.0000 </r>
       <r>   -13.5240     0.0000    32.0000 </r>
       <r>   -13.4243     0.0000    32.0000 </r>
       <r>   -13.3245     0.0000    32.0000 </r>
       <r>   -13.2247     0.0000    32.0000 </r>
       <r>   -13.1250     0.0000    32.0000 </r>
       <r>   -13.0252     0.0000    32.0000 </r>
       <r>   -12.9254     0.0000    32.0000 </r>
       <r>   -12.8256     0.0000    32.0000 </r>
       <r>   -12.7259     0.0000    32.0000 </r>
       <r>   -12.6261     0.0000    32.0000 </r>
       <r>   -12.5263     0.0000    32.0000 </r>
       <r>   -12.4266     0.0000    32.0000 </r>
       <r>   -12.3268     0.0000    32.0000 </r>
       <r>   -12.2270     0.0000    32.0000 </r>
       <r>   -12.1273     0.0000    32.0000 </r>
       <r>   -12.0275     0.0000    32.0000 </r>
       <r>   -11.9277     0.0000    32.0000 </r>
       <r>   -11.8279     0.0000    32.0000 </r>
       <r>   -11.7282     0.0000    32.0000 </r>
       <r>   -11.6284     0.0000    32.0000 </r>
       <r>   -11.5286     0.0000    32.0000 </r>
       <r>   -11.4289     0.0000    32.0000 </r>
       <r>   -11.3291     0.0000    32.0000 </r>
       <r>   -11.2293     0.0000    32.0000 </r>
       <r>   -11.1295     0.0000    32.0000 </r>
       <r>   -11.0298     0.0000    32.0000 </r>
       <r>   -10.9300     0.0000    32.0000 </r>
       <r>   -10.8302     0.0000    32.0000 </r>
       <r>   -10.7305     0.0000    32.0000 </r>
       <r>   -10.6307     0.0000    32.0000 </r>
       <r>   -10.5309     0.0000    32.0000 </r>
       <r>   -10.4311     0.0000    32.0000 </r>
       <r>   -10.3314     0.0000    32.0000 </r>
       <r>   -10.2316     0.0000    32.0000 </r>
       <r>   -10.1318     0.0000    32.0000 </r>
       <r>   -10.0321     0.0000    32.0000 </r>
       <r>    -9.9323     0.0000    32.0000 </r>
       <r>    -9.8325     0.0000    32.0000 </r>
       <r>    -9.7328     0.0000    32.0000 </r>
       <r>    -9.6330     0.0000    32.0000 </r>
       <r>    -9.5332     0.0000    32.0000 </r>
       <r>    -9.4334     0.0000    32.0000 </r>
       <r>    -9.3337     0.0000    32.0000 </r>
       <r>    -9.2339     0.0000    32.0000 </r>
       <r>    -9.1341     0.0000    32.0000 </r>
       <r>    -9.0344     0.0000    32.0000 </r>
       <r>    -8.9346     0.0000    32.0000 </r>
       <r>    -8.8348     0.0000    32.0000 </r>
       <r>    -8.7350     0.0000    32.0000 </r>
       <r>    -8.6353     0.0000    32.0000 </r>
       <r>    -8.5355     0.0000    32.0000 </r>
       <r>    -8.4357     0.0000    32.0000 </r>
       <r>    -8.3360     0.0000    32.0000 </r>
       <r>    -8.2362     0.0000    32.0000 </r>
       <r>    -8.1364     0.0000    32.0000 </r>
       <r>    -8.0366     0.0000    32.0000 </r>
       <r>    -7.9369     0.0000    32.0000 </r>
       <r>    -7.8371     0.0000    32.0000 </r>
       <r>    -7.7373    -0.0000    32.0000 </r>
       <r>    -7.6376    -0.0000    32.0000 </r>
       <r>    -7.5378    -0.0000    32.0000 </r>
       <r>    -7.4380    -0.0000    32.0000 </r>
       <r>    -7.3383    -0.0000    32.0000 </r>
       <r>    -7.2385    -0.0000    32.0000 </r>
       <r>    -7.1387    -0.0000    32.0000 </r>
       <r>    -7.0389    -0.0000    32.0000 </r>
       <r>    -6.9392    -0.0000    32.0000 </r>
       <r>    -6.8394    -0.0000    32.0000 </r>
       <r>    -6.7396    -0.0009    31.9999 </r>
       <r>    -6.6399    -0.0128    31.9986 </r>
       <r>    -6.5401    -0.0949    31.9892 </r>
       <r>    -6.4403    -0.3391    31.9553 </r>
       <r>    -6.3405    -0.2257    31.9328 </r>
       <r>    -6.2408     2.0750    32.1398 </r>
       <r>    -6.1410     6.3751    32.7759 </r>
       <r>    -6.0412     7.5433    33.5285 </r>
       <r>    -5.9415     4.7264    34.0000 </r>
       <r>    -5.8417     4.7058    34.4695 </r>
       <r>    -5.7419     7.3714    35.2050 </r>
       <r>    -5.6422     5.7871    35.7824 </r>
       <r>    -5.5424     1.5206    35.9341 </r>
       <r>    -5.4426     2.3071    36.1643 </r>
       <r>    -5.3428    10.2114    37.1831 </r>
       <r>    -5.2431    19.8420    39.1627 </r>
       <r>    -5.1433    24.2368    41.5809 </r>
       <r>    -5.0435    23.5471    43.9302 </r>
       <r>    -4.9438    24.2731    46.3519 </r>
       <r>    -4.8440    26.9864    49.0444 </r>
       <r>    -4.7442    27.2366    51.7618 </r>
       <r>    -4.6444    28.4833    54.6036 </r>
       <r>    -4.5447    34.9524    58.0908 </r>
       <r>    -4.4449    39.6618    62.0479 </r>
       <r>    -4.3451    39.2515    65.9641 </r>
       <r>    -4.2454    39.1335    69.8684 </r>
       <r>    -4.1456    38.8957    73.7491 </r>
       <r>    -4.0458    37.8987    77.5303 </r>
       <r>    -3.9460    39.8223    81.5034 </r>
       <r>    -3.8463    39.2288    85.4173 </r>
       <r>    -3.7465    30.8800    88.4982 </r>
       <r>    -3.6467    20.5369    90.5472 </r>
       <r>    -3.5470    15.3742    92.0811 </r>
       <r>    -3.4472    17.5942    93.8365 </r>
       <r>    -3.3474    21.5702    95.9885 </r>
       <r>    -3.2477    21.6440    98.1480 </r>
       <r>    -3.1479    21.5374   100.2968 </r>
       <r>    -3.0481    25.1786   102.8089 </r>
       <r>    -2.9483    29.2155   105.7237 </r>
       <r>    -2.8486    30.0534   108.7222 </r>
       <r>    -2.7488    29.8527   111.7006 </r>
       <r>    -2.6490    27.8309   114.4773 </r>
       <r>    -2.5493    22.2287   116.6951 </r>
       <r>    -2.4495    19.3883   118.6295 </r>
       <r>    -2.3497    21.1897   120.7436 </r>
       <r>    -2.2499    19.9767   122.7367 </r>
       <r>    -2.1502    11.6064   123.8947 </r>
       <r>    -2.0504     2.5851   124.1526 </r>
       <r>    -1.9506    -1.0912   124.0437 </r>
       <r>    -1.8509    -1.4364   123.9004 </r>
       <r>    -1.7511     0.2648   123.9268 </r>
       <r>    -1.6513     6.9768   124.6229 </r>
       <r>    -1.5515    15.1948   126.1389 </r>
       <r>    -1.4518    14.2309   127.5587 </r>
       <r>    -1.3520     5.5365   128.1111 </r>
       <r>    -1.2522    -0.0752   128.1036 </r>
       <r>    -1.1525    -0.7502   128.0287 </r>
       <r>    -1.0527    -0.2474   128.0041 </r>
       <r>    -0.9529    -0.0375   128.0003 </r>
       <r>    -0.8532    -0.0031   128.0000 </r>
       <r>    -0.7534    -0.0001   128.0000 </r>
       <r>    -0.6536    -0.0000   128.0000 </r>
       <r>    -0.5538    -0.0000   128.0000 </r>
       <r>    -0.4541    -0.0000   128.0000 </r>
       <r>    -0.3543    -0.0000   128.0000 </r>
       <r>    -0.2545    -0.0000   128.0000 </r>
       <r>    -0.1548    -0.0000   128.0000 </r>
       <r>    -0.0550    -0.0000   128.0000 </r>
       <r>     0.0448    -0.0000   128.0000 </r>
       <r>     0.1446    -0.0000   128.0000 </r>
       <r>     0.2443    -0.0004   128.0000 </r>
       <r>     0.3441    -0.0080   127.9992 </r>
       <r>     0.4439    -0.0866   127.9905 </r>
       <r>     0.5436    -0.5302   127.9376 </r>
       <r>     0.6434    -1.6537   127.7726 </r>
       <r>     0.7432    -1.2590   127.6470 </r>
       <r>     0.8430     8.1543   128.4606 </r>
       <r>     0.9427    31.1178   131.5652 </r>
       <r>     1.0425    55.4412   137.0966 </r>
       <r>     1.1423    64.2970   143.5116 </r>
       <r>     1.2420    61.7264   149.6701 </r>
       <r>     1.3418    62.0638   155.8622 </r>
       <r>     1.4416    66.3917   162.4862 </r>
       <r>     1.5413    65.7443   169.0456 </r>
       <r>     1.6411    53.2404   174.3574 </r>
       <r>     1.7409    35.2083   177.8702 </r>
       <r>     1.8407    27.1895   180.5829 </r>
       <r>     1.9404    31.1790   183.6936 </r>
       <r>     2.0402    34.2961   187.1154 </r>
       <r>     2.1400    28.6825   189.9771 </r>
       <r>     2.2397    17.8019   191.7532 </r>
       <r>     2.3395    12.4583   192.9961 </r>
       <r>     2.4393    14.1190   194.4048 </r>
       <r>     2.5391    11.3031   195.5325 </r>
       <r>     2.6388     5.6711   196.0983 </r>
       <r>     2.7386     9.5739   197.0535 </r>
       <r>     2.8384    21.5490   199.2035 </r>
       <r>     2.9381    28.4815   202.0451 </r>
       <r>     3.0379    24.2296   204.4625 </r>
       <r>     3.1377    16.0928   206.0681 </r>
       <r>     3.2375    11.0407   207.1697 </r>
       <r>     3.3372     6.9042   207.8585 </r>
       <r>     3.4370     2.2414   208.0821 </r>
       <r>     3.5368    -0.2419   208.0580 </r>
       <r>     3.6365    -0.4261   208.0155 </r>
       <r>     3.7363    -0.1333   208.0022 </r>
       <r>     3.8361    -0.0200   208.0002 </r>
       <r>     3.9358    -0.0016   208.0000 </r>
       <r>     4.0356    -0.0001   208.0000 </r>
       <r>     4.1354    -0.0000   208.0000 </r>
       <r>     4.2352    -0.0000   208.0000 </r>
       <r>     4.3349    -0.0000   208.0000 </r>
       <r>     4.4347    -0.0000   208.0000 </r>
       <r>     4.5345    -0.0000   208.0000 </r>
       <r>     4.6342     0.0000   208.0000 </r>
       <r>     4.7340     0.0000   208.0000 </r>
       <r>     4.8338     0.0000   208.0000 </r>
       <r>     4.9336     0.0000   208.0000 </r>
       <r>     5.0333     0.0000   208.0000 </r>
       <r>     5.1331     0.0000   208.0000 </r>
       <r>     5.2329     0.0000   208.0000 </r>
      </set>
     </set>
    </array>
   </total>
  </dos>
 </calculation>
 <structure name="finalpos" >
  <crystal>
   <varray name="basis" >
    <v>       5.73591900       0.00000000      -0.84282200 </v>
    <v>       0.00000000       4.78544200       0.00000000 </v>
    <v>       0.00000000       0.00000000      10.88396600 </v>
   </varray>
   <i name="volume">    298.75297805 </i>
   <varray name="rec_basis" >
    <v>       0.17433998       0.00000000       0.00000000 </v>
    <v>       0.00000000       0.20896711       0.00000000 </v>
    <v>       0.01350037       0.00000000       0.09187827 </v>
   </varray>
  </crystal>
  <varray name="positions" >
   <v>       0.24699400       0.24478500       0.75088200 </v>
   <v>       0.24699400       0.75149400       0.24063300 </v>
   <v>       0.51485700       0.24497600       0.49879200 </v>
   <v>       0.51485700       0.75502400       0.99879200 </v>
   <v>       0.75373900       0.23127500       0.26486200 </v>
   <v>       0.75373900       0.76872500       0.76486200 </v>
   <v>       0.99045900       0.24137200       0.99652900 </v>
   <v>       0.98572100       0.75862800       0.49652900 </v>
   <v>       0.77857200       0.05847800       0.41725200 </v>
   <v>       0.77857200       0.94152200       0.91725200 </v>
   <v>       0.01370000       0.05755600       0.18398300 </v>
   <v>       0.00536500       0.94244400       0.68278600 </v>
   <v>       0.22224900       0.44944100       0.57080400 </v>
   <v>       0.22224900       0.55055900       0.07749700 </v>
   <v>       0.27923300       0.05174700       0.92203700 </v>
   <v>       0.27923300       0.94825300       0.42203700 </v>
   <v>       0.48187500       0.45353000       0.31584000 </v>
   <v>       0.48187500       0.54647000       0.81584000 </v>
   <v>       0.52253600       0.04264500       0.67416600 </v>
   <v>       0.52253600       0.96440000       0.17416600 </v>
   <v>       0.72235300       0.44302000       0.09109400 </v>
   <v>       0.72235300       0.55698000       0.59109400 </v>
   <v>       0.97343300       0.45650500       0.82557900 </v>
   <v>       0.97343300       0.54349500       0.31960400 </v>
  </varray>
 </structure>
</modeling>
