 vasp.5.3.5 31Mar14 (build Aug 29 2014 19:41:47) complex                        
  
 executed on             LinuxIFC date 2019.01.22  20:49:36
 running on    1 total cores
 distrk:  each k-point on    1 cores,    1 groups
 distr:  one band on NCORES_PER_BAND=   1 cores,    1 groups


--------------------------------------------------------------------------------------------------------


 INCAR:
 POTCAR:    PAW_PBE Fe 06Sep2000                  
 POTCAR:    PAW_PBE O 08Apr2002                   
 POTCAR:    PAW_PBE F 08Apr2002                   
 POTCAR:    PAW_PBE Fe 06Sep2000                  
   VRHFIN =Fe:  d7 s1                                                           
   LEXCH  = PE                                                                  
   EATOM  =   594.3153 eV,   43.6809 Ry                                         
                                                                                
   TITEL  = PAW_PBE Fe 06Sep2000                                                
   LULTRA =        F    use ultrasoft PP ?                                      
   IUNSCR =        1    unscreen: 0-lin 1-nonlin 2-no                           
   RPACOR =    2.000    partial core radius                                     
   POMASS =   55.847; ZVAL   =    8.000    mass and valenz                      
   RCORE  =    2.300    outmost cutoff radius                                   
   RWIGS  =    2.460; RWIGS  =    1.302    wigner-seitz radius (au A)           
   ENMAX  =  267.882; ENMIN  =  200.911 eV                                      
   RCLOC  =    1.701    cutoff for local pot                                    
   LCOR   =        T    correct aug charges                                     
   LPAW   =        T    paw PP                                                  
   EAUG   =  511.368                                                            
   DEXC   =    0.000                                                            
   RMAX   =    2.356    core radius for proj-oper                               
   RAUG   =    1.300    factor for augmentation sphere                          
   RDEP   =    2.442    radius for radial grids                                 
   RDEPT  =    1.890    core radius for aug-charge                              
                                                                                
   Atomic configuration                                                         
    9 entries                                                                   
     n  l   j            E        occ.                                          
     1  0  0.50     -6993.8440   2.0000                                         
     2  0  0.50      -814.6047   2.0000                                         
     2  1  1.50      -693.3689   6.0000                                         
     3  0  0.50       -89.4732   2.0000                                         
     3  1  1.50       -55.6373   6.0000                                         
     3  2  2.50        -3.8151   7.0000                                         
     4  0  0.50        -4.2551   1.0000                                         
     4  1  1.50        -3.4015   0.0000                                         
     4  3  2.50        -1.3606   0.0000                                         
   Description                                                                  
     l       E           TYP  RCUT    TYP  RCUT                                 
     2     -3.8151135     23  2.300                                             
     2     -5.1756961     23  2.300                                             
     0     -4.2550963     23  2.300                                             
     0      7.2035603     23  2.300                                             
     1     -2.7211652     23  2.300                                             
     1     18.4316424     23  2.300                                             
  local pseudopotential read in
  partial core-charges read in
  partial kinetic energy density read in
  atomic valenz-charges read in
  non local Contribution for L=           2  read in
    real space projection operators read in
  non local Contribution for L=           2  read in
    real space projection operators read in
  non local Contribution for L=           0  read in
    real space projection operators read in
  non local Contribution for L=           0  read in
    real space projection operators read in
  non local Contribution for L=           1  read in
    real space projection operators read in
  non local Contribution for L=           1  read in
    real space projection operators read in
    PAW grid and wavefunctions read in
 
   number of l-projection  operators is LMAX  =           6
   number of lm-projection operators is LMMAX =          18
 
 POTCAR:    PAW_PBE O 08Apr2002                   
   VRHFIN =O: s2p4                                                              
   LEXCH  = PE                                                                  
   EATOM  =   432.3788 eV,   31.7789 Ry                                         
                                                                                
   TITEL  = PAW_PBE O 08Apr2002                                                 
   LULTRA =        F    use ultrasoft PP ?                                      
   IUNSCR =        1    unscreen: 0-lin 1-nonlin 2-no                           
   RPACOR =    1.200    partial core radius                                     
   POMASS =   16.000; ZVAL   =    6.000    mass and valenz                      
   RCORE  =    1.520    outmost cutoff radius                                   
   RWIGS  =    1.550; RWIGS  =    0.820    wigner-seitz radius (au A)           
   ENMAX  =  400.000; ENMIN  =  300.000 eV                                      
   ICORE  =        2    local potential                                         
   LCOR   =        T    correct aug charges                                     
   LPAW   =        T    paw PP                                                  
   EAUG   =  605.392                                                            
   DEXC   =    0.000                                                            
   RMAX   =    1.553    core radius for proj-oper                               
   RAUG   =    1.300    factor for augmentation sphere                          
   RDEP   =    1.550    radius for radial grids                                 
   RDEPT  =    1.329    core radius for aug-charge                              
                                                                                
   Atomic configuration                                                         
    4 entries                                                                   
     n  l   j            E        occ.                                          
     1  0  0.50      -514.6923   2.0000                                         
     2  0  0.50       -23.9615   2.0000                                         
     2  1  0.50        -9.0305   4.0000                                         
     3  2  1.50        -9.5241   0.0000                                         
   Description                                                                  
     l       E           TYP  RCUT    TYP  RCUT                                 
     0    -23.9615318     23  1.200                                             
     0     -9.5240782     23  1.200                                             
     1     -9.0304911     23  1.520                                             
     1      8.1634956     23  1.520                                             
     2     -9.5240782      7  1.500                                             
  local pseudopotential read in
  partial core-charges read in
  partial kinetic energy density read in
  kinetic energy density of atom read in
  atomic valenz-charges read in
  non local Contribution for L=           0  read in
    real space projection operators read in
  non local Contribution for L=           0  read in
    real space projection operators read in
  non local Contribution for L=           1  read in
    real space projection operators read in
  non local Contribution for L=           1  read in
    real space projection operators read in
    PAW grid and wavefunctions read in
 
   number of l-projection  operators is LMAX  =           4
   number of lm-projection operators is LMMAX =           8
 
 POTCAR:    PAW_PBE F 08Apr2002                   
   VRHFIN =F: s2p5                                                              
   LEXCH  = PE                                                                  
   EATOM  =   659.6475 eV,   48.4827 Ry                                         
                                                                                
   TITEL  = PAW_PBE F 08Apr2002                                                 
   LULTRA =        F    use ultrasoft PP ?                                      
   IUNSCR =        1    unscreen: 0-lin 1-nonlin 2-no                           
   RPACOR =    1.200    partial core radius                                     
   POMASS =   18.998; ZVAL   =    7.000    mass and valenz                      
   RCORE  =    1.520    outmost cutoff radius                                   
   RWIGS  =    1.500; RWIGS  =    0.794    wigner-seitz radius (au A)           
   ENMAX  =  400.000; ENMIN  =  300.000 eV                                      
   ICORE  =        2    local potential                                         
   LCOR   =        T    correct aug charges                                     
   LPAW   =        T    paw PP                                                  
   EAUG   =  613.614                                                            
   RMAX   =    1.555    core radius for proj-oper                               
   RAUG   =    1.300    factor for augmentation sphere                          
   RDEP   =    1.539    radius for radial grids                                 
   RDEPT  =    1.299    core radius for aug-charge                              
                                                                                
   Atomic configuration                                                         
    4 entries                                                                   
     n  l   j            E        occ.                                          
     1  0  0.50      -663.3661   2.0000                                         
     2  0  0.50       -29.8995   2.0000                                         
     2  1  0.50       -11.1114   5.0000                                         
     3  2  1.50       -10.8847   0.0000                                         
   Description                                                                  
     l       E           TYP  RCUT    TYP  RCUT                                 
     0    -29.8995018     23  1.200                                             
     0     -9.5240782     23  1.200                                             
     1    -11.1113914     23  1.520                                             
     1      1.3605826     23  1.520                                             
     2    -10.8846608      7  1.500                                             
  local pseudopotential read in
  partial core-charges read in
  partial kinetic energy density read in
  atomic valenz-charges read in
  non local Contribution for L=           0  read in
    real space projection operators read in
  non local Contribution for L=           0  read in
    real space projection operators read in
  non local Contribution for L=           1  read in
    real space projection operators read in
  non local Contribution for L=           1  read in
    real space projection operators read in
    PAW grid and wavefunctions read in
 
   number of l-projection  operators is LMAX  =           4
   number of lm-projection operators is LMMAX =           8
 
 Optimization of the real space projectors (new method)

 maximal supplied QI-value         = 16.25
 optimisation between [QCUT,QGAM] = [ 10.24, 20.48] = [ 29.35,117.42] Ry 
 Optimized for a Real-space Cutoff    1.51 Angstroem

   l    n(q)    QCUT    max X(q) W(low)/X(q) W(high)/X(q)  e(spline) 
   2      8    10.239    80.901    0.43E-03    0.67E-03    0.20E-06
   2      8    10.239    75.754    0.44E-03    0.68E-03    0.20E-06
   0      9    10.239    58.752    0.81E-04    0.41E-04    0.71E-07
   0      9    10.239    30.679    0.75E-04    0.39E-04    0.65E-07
   1      9    10.239    17.977    0.50E-04    0.16E-03    0.11E-06
   1      9    10.239    13.559    0.39E-04    0.13E-03    0.98E-07
 Optimization of the real space projectors (new method)

 maximal supplied QI-value         = 24.76
 optimisation between [QCUT,QGAM] = [ 10.15, 20.30] = [ 28.85,115.39] Ry 
 Optimized for a Real-space Cutoff    1.38 Angstroem

   l    n(q)    QCUT    max X(q) W(low)/X(q) W(high)/X(q)  e(spline) 
   0      8    10.150    20.381    0.22E-03    0.32E-03    0.29E-06
   0      8    10.150    15.268    0.23E-03    0.35E-03    0.30E-06
   1      8    10.150     5.964    0.46E-03    0.53E-03    0.21E-06
   1      8    10.150     5.382    0.38E-03    0.45E-03    0.19E-06
 Optimization of the real space projectors (new method)

 maximal supplied QI-value         = 24.76
 optimisation between [QCUT,QGAM] = [ 10.15, 20.30] = [ 28.85,115.39] Ry 
 Optimized for a Real-space Cutoff    1.38 Angstroem

   l    n(q)    QCUT    max X(q) W(low)/X(q) W(high)/X(q)  e(spline) 
   0      8    10.150    14.049    0.15E-03    0.22E-03    0.24E-06
   0      8    10.150     8.945    0.21E-03    0.31E-03    0.30E-06
   1      8    10.150     7.086    0.42E-03    0.48E-03    0.23E-06
   1      8    10.150     6.747    0.37E-03    0.43E-03    0.21E-06
  PAW_PBE Fe 06Sep2000                  :
 energy of atom  1       EATOM= -594.3153
 kinetic energy error for atom=    0.0088 (will be added to EATOM!!)
  PAW_PBE O 08Apr2002                   :
 energy of atom  2       EATOM= -432.3788
 kinetic energy error for atom=    0.1156 (will be added to EATOM!!)
  PAW_PBE F 08Apr2002                   :
 energy of atom  3       EATOM= -659.6475
 kinetic energy error for atom=    0.1978 (will be added to EATOM!!)
 
 
 POSCAR: Fe16 O4 F32                             
  positions in direct lattice
  No initial velocities read in
 exchange correlation table for  LEXCH =        8
   RHO(1)=    0.500       N(1)  =     2000
   RHO(2)=  100.500       N(2)  =     4000
 


--------------------------------------------------------------------------------------------------------


 ion  position               nearest neighbor table
   1  0.164  0.484  0.180-  21 1.90  34 1.90  45 1.91  29 2.05  26 2.09  42 2.16   5 3.10
   2  0.164  0.516  0.674-  46 1.91  33 1.93  22 1.94  30 1.99  25 2.02  41 2.14   6 3.01
   3  0.671  0.984  0.180-  47 1.86  36 1.90  23 1.95  31 1.99  44 2.12  28 2.12   7 3.10
   4  0.664  0.016  0.680-  24 1.90  35 1.90  48 1.91  27 2.03  32 2.05  43 2.16   8 3.10
   5  0.175  0.473  0.973-  17 1.82  38 1.90  52 1.92  42 2.15  29 2.16  26 2.21  14 3.00   1 3.10

   6  0.175  0.527  0.473-  18 1.82  37 1.90  51 1.97  30 2.16  41 2.18  25 2.24  13 3.00   2 3.01

   7  0.675  0.973  0.973-  19 1.82  40 1.93  50 1.97  44 2.15  31 2.22  28 2.24  16 3.00   3 3.10

   8  0.675  0.027  0.473-  20 1.87  39 1.90  49 1.97  43 2.15  32 2.16  27 2.30  15 3.03   4 3.10

   9  0.332  0.029  0.822-  17 2.01  24 2.08  33 2.10  46 2.14  50 2.29  38 2.38  14 2.79
  10  0.332  0.971  0.322-  18 2.01  23 2.08  34 2.09  45 2.13  49 2.29  37 2.38  13 2.77
  11  0.832  0.524  0.822-  19 2.03  22 2.09  48 2.10  35 2.10  40 2.31  52 2.37  16 2.78
  12  0.833  0.471  0.322-  20 1.93  36 2.05  21 2.07  47 2.13  51 2.28  39 2.39  15 2.92
  13  0.334  0.004  0.507-  18 1.91  49 2.07  37 2.12  41 2.15  30 2.21  27 2.22  10 2.77   6 3.00

  14  0.334  0.996  0.009-  17 1.93  50 2.08  38 2.13  42 2.15  28 2.16  29 2.20   9 2.79   5 3.00

  15  0.834  0.504  0.517-  43 2.09  20 2.09  25 2.11  32 2.14  51 2.17  39 2.21  12 2.92   8 3.03

  16  0.834  0.496  0.008-  19 1.92  52 1.99  26 2.14  44 2.15  40 2.18  31 2.25  11 2.78   7 3.00

  17  0.309  0.267  0.925-   5 1.82  14 1.93   9 2.01
  18  0.309  0.733  0.425-   6 1.82  13 1.91  10 2.01
  19  0.809  0.767  0.925-   7 1.82  16 1.92  11 2.03
  20  0.809  0.233  0.418-   8 1.87  12 1.93  15 2.09
  21  0.004  0.369  0.244-   1 1.90  12 2.07
  22  0.004  0.631  0.744-   2 1.94  11 2.09
  23  0.504  0.869  0.244-   3 1.95  10 2.08
  24  0.504  0.131  0.744-   4 1.90   9 2.08
  25  0.026  0.395  0.579-   2 2.02  15 2.11   6 2.24
  26  0.026  0.595  0.078-   1 2.09  16 2.14   5 2.21
  27  0.526  0.895  0.585-   4 2.03  13 2.22   8 2.30
  28  0.526  0.105  0.079-   3 2.12  14 2.16   7 2.24
  29  0.176  0.214  0.084-   1 2.05   5 2.16  14 2.20
  30  0.176  0.786  0.584-   2 1.99   6 2.16  13 2.21
  31  0.676  0.714  0.089-   3 1.99   7 2.22  16 2.25
  32  0.676  0.286  0.584-   4 2.05  15 2.14   8 2.16
  33  0.181  0.206  0.739-   2 1.93   9 2.10
  34  0.181  0.797  0.239-   1 1.90  10 2.09
  35  0.681  0.703  0.739-   4 1.90  11 2.10
  36  0.689  0.297  0.239-   3 1.90  12 2.05
  37  0.189  0.202  0.424-   6 1.90  13 2.12  10 2.38
  38  0.189  0.798  0.924-   5 1.90  14 2.13   9 2.38
  39  0.689  0.702  0.424-   8 1.90  15 2.21  12 2.39
  40  0.689  0.298  0.918-   7 1.93  16 2.18  11 2.31
  41  0.300  0.347  0.578-   2 2.14  13 2.15   6 2.18
  42  0.293  0.653  0.078-  14 2.15   5 2.15   1 2.16
  43  0.793  0.847  0.578-  15 2.09   8 2.15   4 2.16
  44  0.793  0.153  0.078-   3 2.12   7 2.15  16 2.15
  45  0.303  0.306  0.248-   1 1.91  10 2.13
  46  0.297  0.694  0.748-   2 1.91   9 2.14
  47  0.803  0.806  0.248-   3 1.86  12 2.13
  48  0.803  0.194  0.748-   4 1.91  11 2.10
  49  0.491  0.135  0.423-   8 1.97  13 2.07  10 2.29
  50  0.491  0.865  0.923-   7 1.97  14 2.08   9 2.29
  51  0.991  0.635  0.423-   6 1.97  15 2.17  12 2.28
  52  0.991  0.365  0.933-   5 1.92  16 1.99  11 2.37
 

IMPORTANT INFORMATION: All symmetrisations will be switched off!
NOSYMM: (Re-)initialisation of all symmetry stuff for point group C_1.

 
 
 KPOINTS: Automatic mesh                          

Automatic generation of k-mesh.
Space group operators:
 irot       det(A)        alpha          n_x          n_y          n_z        tau_x        tau_y        tau_z
    1     1.000000     0.000000     1.000000     0.000000     0.000000     0.000000     0.000000     0.000000
 
 Subroutine IBZKPT returns following result:
 ===========================================
 
 Found      8 irreducible k-points:
 
 Following reciprocal coordinates:
            Coordinates               Weight
  0.000000  0.000000  0.000000      1.000000
  0.500000  0.000000  0.000000      1.000000
  0.000000  0.500000  0.000000      1.000000
  0.500000  0.500000  0.000000      1.000000
  0.000000  0.000000  0.500000      1.000000
  0.500000  0.000000  0.500000      1.000000
  0.000000  0.500000  0.500000      1.000000
  0.500000  0.500000  0.500000      1.000000
 
 Following cartesian coordinates:
            Coordinates               Weight
  0.000000  0.000000  0.000000      1.000000
  0.053185  0.000000  0.000000      1.000000
  0.000000  0.093293  0.000000      1.000000
  0.053185  0.093293  0.000000      1.000000
  0.000299  0.000000  0.033432      1.000000
  0.053484  0.000000  0.033432      1.000000
  0.000299  0.093293  0.033432      1.000000
  0.053484  0.093293  0.033432      1.000000
 


--------------------------------------------------------------------------------------------------------




 Dimension of arrays:
   k-points           NKPTS =      8   k-points in BZ     NKDIM =      8   number of bands    NBANDS=    225
   number of dos      NEDOS =    301   number of ions     NIONS =     52
   non local maximal  LDIM  =      6   non local SUM 2l+1 LMDIM =     18
   total plane-waves  NPLWV = 107520
   max r-space proj   IRMAX =   2101   max aug-charges    IRDMAX=   5282
   dimension x,y,z NGX =    48 NGY =   28 NGZ =   80
   dimension x,y,z NGXF=    96 NGYF=   56 NGZF=  160
   support grid    NGXF=    96 NGYF=   56 NGZF=  160
   ions per type =              16   4  32
 NGX,Y,Z   is equivalent  to a cutoff of   8.49,  8.69,  8.89 a.u.
 NGXF,Y,Z  is equivalent  to a cutoff of  16.98, 17.37, 17.79 a.u.


 I would recommend the setting:
   dimension x,y,z NGX =    46 NGY =   26 NGZ =   73
 SYSTEM =  tssm                                    
 POSCAR =  Fe16 O4 F32                             

 Startparameter for this run:
   NWRITE =      2    write-flag & timer
   PREC   = normal    normal or accurate (medium, high low for compatibility)
   ISTART =      0    job   : 0-new  1-cont  2-samecut
   ICHARG =      2    charge: 1-file 2-atom 10-const
   ISPIN  =      1    spin polarized calculation?
   LNONCOLLINEAR =      F non collinear calculations
   LSORBIT =      F    spin-orbit coupling
   INIWAV =      1    electr: 0-lowe 1-rand  2-diag
   LASPH  =      F    aspherical Exc in radial PAW
   METAGGA=      F    non-selfconsistent MetaGGA calc.

 Electronic Relaxation 1
   ENCUT  =  400.0 eV  29.40 Ry    5.42 a.u.  15.33  8.74 24.39*2*pi/ulx,y,z
   ENINI  =  400.0     initial cutoff
   ENAUG  =  613.6 eV  augmentation charge cutoff
   NELM   =    300;   NELMIN=  2; NELMDL=-12     # of ELM steps 
   EDIFF  = 0.1E-03   stopping-criterion for ELM
   LREAL  =      T    real-space projection
   NLSPLINE    = F    spline interpolate recip. space projectors
   LCOMPAT=      F    compatible to vasp.4.4
   GGA_COMPAT  = T    GGA compatible to vasp.4.4-vasp.4.6
   LMAXPAW     = -100 max onsite density
   LMAXMIX     =    2 max onsite mixed and CHGCAR
   VOSKOWN=      0    Vosko Wilk Nusair interpolation
   ROPT   =   -0.00050  -0.00050  -0.00050
 Ionic relaxation
   EDIFFG = 0.1E-02   stopping-criterion for IOM
   NSW    =      1    number of steps for IOM
   NBLOCK =      1;   KBLOCK =      1    inner block; outer block 
   IBRION =      1    ionic relax: 0-MD 1-quasi-New 2-CG
   NFREE  =      0    steps in history (QN), initial steepest desc. (CG)
   ISIF   =      2    stress and relaxation
   IWAVPR =     11    prediction:  0-non 1-charg 2-wave 3-comb
   ISYM   =      0    0-nonsym 1-usesym 2-fastsym
   LCORR  =      T    Harris-Foulkes like correction to forces

   POTIM  = 0.5000    time-step for ionic-motion
   TEIN   =    0.0    initial temperature
   TEBEG  =    0.0;   TEEND  =   0.0 temperature during run
   SMASS  =  -3.00    Nose mass-parameter (am)
   estimated Nose-frequenzy (Omega)   =  0.10E-29 period in steps =****** mass=  -0.202E-26a.u.
   SCALEE = 1.0000    scale energy and forces
   NPACO  =    256;   APACO  = 16.0  distance and # of slots for P.C.
   PSTRESS=    0.0 pullay stress

  Mass of Ions in am
   POMASS =  55.85 16.00 19.00
  Ionic Valenz
   ZVAL   =   8.00  6.00  7.00
  Atomic Wigner-Seitz radii
   RWIGS  =  -1.00 -1.00 -1.00
  virtual crystal weights 
   VCA    =   1.00  1.00  1.00
   NELECT =     376.0000    total number of electrons
   NUPDOWN=      -1.0000    fix difference up-down

 DOS related values:
   EMIN   =  10.00;   EMAX   =-10.00  energy-range for DOS
   EFERMI =   0.00
   ISMEAR =     1;   SIGMA  =   0.20  broadening in eV -4-tet -1-fermi 0-gaus

 Electronic relaxation 2 (details)
   IALGO  =     48    algorithm
   LDIAG  =      T    sub-space diagonalisation (order eigenvalues)
   LSUBROT=      F    optimize rotation matrix (better conditioning)
   TURBO    =      0    0=normal 1=particle mesh
   IRESTART =      0    0=no restart 2=restart with 2 vectors
   NREBOOT  =      0    no. of reboots
   NMIN     =      0    reboot dimension
   EREF     =   0.00    reference energy to select bands
   IMIX   =      4    mixing-type and parameters
     AMIX     =   0.40;   BMIX     =  1.00
     AMIX_MAG =   1.60;   BMIX_MAG =  1.00
     AMIN     =   0.01
     WC   =   100.;   INIMIX=   1;  MIXPRE=   1;  MAXMIX= -45

 Intra band minimization:
   WEIMIN = 0.0010     energy-eigenvalue tresh-hold
   EBREAK =  0.11E-06  absolut break condition
   DEPER  =   0.30     relativ break condition  

   TIME   =   0.40     timestep for ELM

  volume/ion in A,a.u.               =      14.49        97.79
  Fermi-wavevector in a.u.,A,eV,Ry     =   1.298477  2.453765 22.939992  1.686042
  Thomas-Fermi vector in A             =   2.429803
 
 Write flags
   LWAVE  =      F    write WAVECAR
   LCHARG =      T    write CHGCAR
   LVTOT  =      F    write LOCPOT, total local potential
   LVHAR  =      F    write LOCPOT, Hartree potential only
   LELF   =      F    write electronic localiz. function (ELF)
   LORBIT =      0    0 simple, 1 ext, 2 COOP (PROOUT)


 Dipole corrections
   LMONO  =      F    monopole corrections only (constant potential shift)
   LDIPOL =      F    correct potential (dipole corrections)
   IDIPOL =      0    1-x, 2-y, 3-z, 4-all directions 
   EPSILON=  1.0000000 bulk dielectric constant

 Exchange correlation treatment:
   GGA     =    --    GGA type
   LEXCH   =     8    internal setting for exchange type
   VOSKOWN=      0    Vosko Wilk Nusair interpolation
   LHFCALC =     F    Hartree Fock is set to
   LHFONE  =     F    Hartree Fock one center treatment
   AEXX    =    0.0000 exact exchange contribution

 Linear response parameters
   LEPSILON=     F    determine dielectric tensor
   LRPA    =     F    only Hartree local field effects (RPA)
   LNABLA  =     F    use nabla operator in PAW spheres
   LVEL    =     F    velocity operator in full k-point grid
   LINTERFAST=   F  fast interpolation
   KINTER  =     0    interpolate to denser k-point grid
   CSHIFT  =0.1000    complex shift for real part using Kramers Kronig
   OMEGAMAX=  -1.0    maximum frequency
   DEG_THRESHOLD= 0.2000000E-02 threshold for treating states as degnerate
   RTIME   =    0.100 relaxation time in fs

 Orbital magnetization related:
   ORBITALMAG=     F  switch on orbital magnetization
   LCHIMAG   =     F  perturbation theory with respect to B field
   DQ        =  0.001000  dq finite difference perturbation B field



--------------------------------------------------------------------------------------------------------


 quasi-Newton-method for relaxation of ions
 charge density and potential will be updated during run
 non-spin polarized calculation
 RMM-DIIS sequential band-by-band
 perform sub-space diagonalisation
    before iterative eigenvector-optimisation
 modified Broyden-mixing scheme, WC =      100.0
 initial mixing is a Kerker type mixing with AMIX =  0.4000 and BMIX =      1.0000
 Hartree-type preconditioning will be used
 using additional bands           37
 real space projection scheme for non local part
 use partial core corrections
 calculate Harris-corrections to forces 
   (improved forces if not selfconsistent)
 use gradient corrections 
 use of overlap-Matrix (Vanderbilt PP)
 Methfessel and Paxton  Order N= 1 SIGMA  =   0.20


--------------------------------------------------------------------------------------------------------


  energy-cutoff  :      400.00
  volume of cell :      753.55
      direct lattice vectors                 reciprocal lattice vectors
     9.401191000  0.000000000 -0.084129000     0.106369501  0.000000000  0.000000000
     0.000000000  5.359467000  0.000000000     0.000000000  0.186585718  0.000000000
     0.000000000  0.000000000 14.955651000     0.000598353  0.000000000  0.066864358

  length of vectors
     9.401567418  5.359467000 14.955651000     0.106369501  0.186585718  0.066867035


 
 k-points in units of 2pi/SCALE and weight: Automatic mesh                          
   0.00000000  0.00000000  0.00000000       0.125
   0.05318475  0.00000000  0.00000000       0.125
   0.00000000  0.09329286  0.00000000       0.125
   0.05318475  0.09329286  0.00000000       0.125
   0.00029918  0.00000000  0.03343218       0.125
   0.05348393  0.00000000  0.03343218       0.125
   0.00029918  0.09329286  0.03343218       0.125
   0.05348393  0.09329286  0.03343218       0.125
 
 k-points in reciprocal lattice and weights: Automatic mesh                          
   0.00000000  0.00000000  0.00000000       0.125
   0.50000000  0.00000000  0.00000000       0.125
   0.00000000  0.50000000  0.00000000       0.125
   0.50000000  0.50000000  0.00000000       0.125
   0.00000000  0.00000000  0.50000000       0.125
   0.50000000  0.00000000  0.50000000       0.125
   0.00000000  0.50000000  0.50000000       0.125
   0.50000000  0.50000000  0.50000000       0.125
 
 position of ions in fractional coordinates (direct lattice) 
   0.16411200  0.48397600  0.17995900
   0.16411200  0.51602400  0.67425600
   0.67084800  0.98397600  0.17995900
   0.66411200  0.01602400  0.67995900
   0.17533200  0.47285200  0.97303200
   0.17533200  0.52714800  0.47303200
   0.67533200  0.97285200  0.97303200
   0.67533200  0.02714800  0.47303200
   0.33162900  0.02941400  0.82240100
   0.33162900  0.97058600  0.32240100
   0.83162900  0.52354900  0.82240100
   0.83285600  0.47058600  0.32240100
   0.33361900  0.00432000  0.50720300
   0.33361900  0.99568000  0.00867400
   0.83361900  0.50432000  0.51711500
   0.83361900  0.49568000  0.00815800
   0.30926400  0.26740800  0.92544800
   0.30926400  0.73259200  0.42544800
   0.80926400  0.76740800  0.92544800
   0.80926400  0.23259200  0.41808200
   0.00386100  0.36884200  0.24394900
   0.00386100  0.63115800  0.74394900
   0.50386100  0.86884200  0.24394900
   0.50386100  0.13115800  0.74394900
   0.02591400  0.39537700  0.57915900
   0.02591400  0.59525200  0.07767900
   0.52591400  0.89537700  0.58467200
   0.52591400  0.10462300  0.07915900
   0.17611800  0.21417000  0.08350500
   0.17611800  0.78583000  0.58350500
   0.67611800  0.71417000  0.08855200
   0.67611800  0.28583000  0.58350500
   0.18147400  0.20640400  0.73945400
   0.18147400  0.79655500  0.23945400
   0.68147400  0.70344500  0.73945400
   0.68930100  0.29655500  0.23945400
   0.18900300  0.20186000  0.42366300
   0.18900300  0.79814000  0.92366300
   0.68900300  0.70186000  0.42366300
   0.68900300  0.29814000  0.91814500
   0.30046700  0.34686800  0.57827500
   0.29347700  0.65313200  0.07827500
   0.79347700  0.84686800  0.57827500
   0.79347700  0.15313200  0.07827500
   0.30310600  0.30561100  0.24801900
   0.29673400  0.69438900  0.74801900
   0.80310600  0.80561100  0.24801900
   0.80310600  0.19438900  0.74801900
   0.49071400  0.13464800  0.42295500
   0.49071400  0.86535200  0.92295500
   0.99071400  0.63464800  0.42295500
   0.99071400  0.36535200  0.93269300
 
 position of ions in cartesian coordinates  (Angst):
   1.54284826  2.59385340  2.67759742
   1.54284826  2.76561360 10.07013084
   6.30677018  5.27358690  2.63496623
   6.24344376  0.08588010 10.11335842
   1.64832962  2.53423469 14.53757650
   1.64832962  2.82523231  7.05975100
   6.34892512  5.21396819 14.49551200
   6.34892512  0.14549881  7.01768650
   3.11770757  0.15764336 12.27164272
   3.11770757  5.20182364  4.79381722
   7.81830307  2.80594359 12.22957822
   7.82983833  2.52209014  4.75164950
   3.13641594  0.02315290  7.55748402
   3.13641594  5.33631410  0.10165828
   7.83701144  2.70288640  7.66365993
   7.83701144  2.65658060  0.05187667
   2.90744993  1.43316435 13.81465924
   2.90744993  3.92630265  6.33683374
   7.60804543  4.11289785 13.77259474
   7.60804543  1.24656915  6.18460591
   0.03629800  1.97679653  3.64809128
   0.03629800  3.38267047 11.12591678
   4.73689350  4.65653003  3.60602678
   4.73689350  0.70293697 11.08385228
   0.24362246  2.11900998  8.65951976
   0.24362246  3.19023345  1.15955990
   4.94421796  4.79874348  8.69990576
   4.94421796  0.56072352  1.13962976
   1.65571896  1.14783705  1.23405501
   1.65571896  4.21162995  8.71188051
   6.35631446  3.82757055  1.26747168
   6.35631446  1.53189645  8.66981601
   1.70607174  1.10621543 11.04374873
   1.70607174  4.26911024  3.56592323
   6.40666724  3.77009026 11.00168423
   6.48025036  1.58937674  3.52320025
   1.77685330  1.08186201  6.32025534
   1.77685330  4.27760499 13.79808084
   6.47744880  3.76159551  6.27819084
   6.47744880  1.59787149 13.67349105
   2.82474766  1.85902760  8.62320109
   2.75903333  3.50043940  1.14596366
   7.45962883  4.53876110  8.58172466
   7.45962883  0.82070590  1.10389916
   2.84955740  1.63791207  3.68378560
   2.78965301  3.72155493 11.16214717
   7.55015290  4.31764557  3.64172110
   7.55015290  1.04182143 11.11954660
   4.61329604  0.72164151  6.28428409
   4.61329604  4.63782549 13.76210959
   9.31389154  3.40137501  6.24221959
   9.31389154  1.95809199 13.86568322
 


--------------------------------------------------------------------------------------------------------


 k-point  1 :   0.0000 0.0000 0.0000  plane waves:   13693
 k-point  2 :   0.5000 0.0000 0.0000  plane waves:   13694
 k-point  3 :   0.0000 0.5000 0.0000  plane waves:   13710
 k-point  4 :   0.5000 0.5000 0.0000  plane waves:   13696
 k-point  5 :   0.0000 0.0000 0.5000  plane waves:   13722
 k-point  6 :   0.5000 0.0000 0.5000  plane waves:   13706
 k-point  7 :   0.0000 0.5000 0.5000  plane waves:   13672
 k-point  8 :   0.5000 0.5000 0.5000  plane waves:   13704

 maximum and minimum number of plane-waves per node :     13722    13672

 maximum number of plane-waves:     13722
 maximum index in each direction: 
   IXMAX=   15   IYMAX=    8   IZMAX=   24
   IXMIN=  -15   IYMIN=   -9   IZMIN=  -24

 WARNING: aliasing errors must be expected set NGX to  62 to avoid them
 WARNING: aliasing errors must be expected set NGY to  36 to avoid them
 WARNING: aliasing errors must be expected set NGZ to  98 to avoid them
 aliasing errors are usually negligible using standard VASP settings
 and one can safely disregard these warnings

 serial   3D FFT for wavefunctions
 parallel 3D FFT for charge:
    minimum data exchange during FFTs selected (reduces bandwidth)


 total amount of memory used by VASP on root node   542857. kBytes
========================================================================

   base      :      30000. kBytes
   nonlr-proj:      10755. kBytes
   fftplans  :      29624. kBytes
   grid      :      59888. kBytes
   one-center:        808. kBytes
   wavefun   :     411782. kBytes
 
     INWAV:  cpu time    0.00: real time    0.00
 Broyden mixing: mesh for mixing (old mesh)
   NGX = 31   NGY = 17   NGZ = 49
  (NGX  = 96   NGY  = 56   NGZ  =160)
  gives a total of  25823 points

 initial charge density was supplied:
 charge density of overlapping atoms calculated
 number of electron     376.0000000 magnetization 
 keeping initial charge density in first step


--------------------------------------------------------------------------------------------------------


 Maximum index for non-local projection operator         2005
 Maximum index for augmentation-charges         4936 (set IRDMAX)


--------------------------------------------------------------------------------------------------------


 First call to EWALD:  gamma=   0.195
 Maximum number of real-space cells 3x 4x 2
 Maximum number of reciprocal cells 3x 2x 4

 FEWALD executed in parallel
    FEWALD:  cpu time    0.01: real time    0.02


----------------------------------------- Iteration    1(   1)  ---------------------------------------


    POTLOK:  cpu time    0.41: real time    0.83
    SETDIJ:  cpu time    0.06: real time    0.12
    EDDIAG:  cpu time    7.30: real time   14.59
  RMM-DIIS:  cpu time   14.81: real time   29.36
    ORTHCH:  cpu time    1.99: real time    3.60
       DOS:  cpu time    0.00: real time    0.01
    --------------------------------------------
      LOOP:  cpu time   24.58: real time   48.51

 eigenvalue-minimisations  :  1800
 total energy-change (2. order) : 0.4809630E+04  (-0.1397990E+05)
 number of electron     376.0000000 magnetization 
 augmentation part      376.0000000 magnetization 

 Free energy of the ion-electron system (eV)
  ---------------------------------------------------
  alpha Z        PSCENC =      1136.56246079
  Ewald energy   TEWEN  =    -19658.67734157
  -Hartree energ DENC   =    -12225.27234302
  -exchange      EXHF   =         0.00000000
  -V(xc)+E(xc)   XCENC  =      1336.54370968
  PAW double counting   =     27518.38149996   -27812.06485035
  entropy T*S    EENTRO =         0.03589286
  eigenvalues    EBANDS =      2173.77294403
  atomic energy  EATOM  =     32340.34786160
  ---------------------------------------------------
  free energy    TOTEN  =      4809.62983398 eV

  energy without entropy =     4809.59394112  energy(sigma->0) =     4809.61786969


--------------------------------------------------------------------------------------------------------




----------------------------------------- Iteration    1(   2)  ---------------------------------------


    EDDIAG:  cpu time    6.71: real time   12.65
  RMM-DIIS:  cpu time   14.26: real time   20.68
    ORTHCH:  cpu time    2.00: real time    4.00
       DOS:  cpu time    0.00: real time    0.01
    --------------------------------------------
      LOOP:  cpu time   22.98: real time   37.35

 eigenvalue-minimisations  :  1800
 total energy-change (2. order) :-0.3203364E+04  (-0.3659685E+04)
 number of electron     376.0000000 magnetization 
 augmentation part      376.0000000 magnetization 

 Free energy of the ion-electron system (eV)
  ---------------------------------------------------
  alpha Z        PSCENC =      1136.56246079
  Ewald energy   TEWEN  =    -19658.67734157
  -Hartree energ DENC   =    -12225.27234302
  -exchange      EXHF   =         0.00000000
  -V(xc)+E(xc)   XCENC  =      1336.54370968
  PAW double counting   =     27518.38149996   -27812.06485035
  entropy T*S    EENTRO =         0.02965378
  eigenvalues    EBANDS =     -1029.58512655
  atomic energy  EATOM  =     32340.34786160
  ---------------------------------------------------
  free energy    TOTEN  =      1606.26552432 eV

  energy without entropy =     1606.23587054  energy(sigma->0) =     1606.25563973


--------------------------------------------------------------------------------------------------------




----------------------------------------- Iteration    1(   3)  ---------------------------------------


    EDDIAG:  cpu time    6.50: real time   13.01
  RMM-DIIS:  cpu time   14.02: real time   27.15
    ORTHCH:  cpu time    2.08: real time    4.18
       DOS:  cpu time    0.01: real time    0.01
    --------------------------------------------
      LOOP:  cpu time   22.61: real time   44.34

 eigenvalue-minimisations  :  1800
 total energy-change (2. order) :-0.1044409E+04  (-0.1061448E+04)
 number of electron     376.0000000 magnetization 
 augmentation part      376.0000000 magnetization 

 Free energy of the ion-electron system (eV)
  ---------------------------------------------------
  alpha Z        PSCENC =      1136.56246079
  Ewald energy   TEWEN  =    -19658.67734157
  -Hartree energ DENC   =    -12225.27234302
  -exchange      EXHF   =         0.00000000
  -V(xc)+E(xc)   XCENC  =      1336.54370968
  PAW double counting   =     27518.38149996   -27812.06485035
  entropy T*S    EENTRO =         0.32064937
  eigenvalues    EBANDS =     -2074.28519026
  atomic energy  EATOM  =     32340.34786160
  ---------------------------------------------------
  free energy    TOTEN  =       561.85645620 eV

  energy without entropy =      561.53580683  energy(sigma->0) =      561.74957307


--------------------------------------------------------------------------------------------------------




----------------------------------------- Iteration    1(   4)  ---------------------------------------


    EDDIAG:  cpu time    7.15: real time   13.71
  RMM-DIIS:  cpu time   15.41: real time   30.83
    ORTHCH:  cpu time    2.00: real time    3.56
       DOS:  cpu time    0.01: real time    0.01
    --------------------------------------------
      LOOP:  cpu time   24.57: real time   48.11

 eigenvalue-minimisations  :  1800
 total energy-change (2. order) :-0.4236212E+03  (-0.3691353E+03)
 number of electron     376.0000000 magnetization 
 augmentation part      376.0000000 magnetization 

 Free energy of the ion-electron system (eV)
  ---------------------------------------------------
  alpha Z        PSCENC =      1136.56246079
  Ewald energy   TEWEN  =    -19658.67734157
  -Hartree energ DENC   =    -12225.27234302
  -exchange      EXHF   =         0.00000000
  -V(xc)+E(xc)   XCENC  =      1336.54370968
  PAW double counting   =     27518.38149996   -27812.06485035
  entropy T*S    EENTRO =        -0.00649080
  eigenvalues    EBANDS =     -2497.57927356
  atomic energy  EATOM  =     32340.34786160
  ---------------------------------------------------
  free energy    TOTEN  =       138.23523273 eV

  energy without entropy =      138.24172353  energy(sigma->0) =      138.23739633


--------------------------------------------------------------------------------------------------------




----------------------------------------- Iteration    1(   5)  ---------------------------------------


    EDDIAG:  cpu time    6.65: real time   13.31
  RMM-DIIS:  cpu time   14.09: real time   27.79
    ORTHCH:  cpu time    2.01: real time    4.03
       DOS:  cpu time    0.01: real time    0.02
    --------------------------------------------
      LOOP:  cpu time   22.76: real time   45.15

 eigenvalue-minimisations  :  1800
 total energy-change (2. order) :-0.2516174E+03  (-0.1994658E+03)
 number of electron     376.0000000 magnetization 
 augmentation part      376.0000000 magnetization 

 Free energy of the ion-electron system (eV)
  ---------------------------------------------------
  alpha Z        PSCENC =      1136.56246079
  Ewald energy   TEWEN  =    -19658.67734157
  -Hartree energ DENC   =    -12225.27234302
  -exchange      EXHF   =         0.00000000
  -V(xc)+E(xc)   XCENC  =      1336.54370968
  PAW double counting   =     27518.38149996   -27812.06485035
  entropy T*S    EENTRO =         0.07149743
  eigenvalues    EBANDS =     -2749.27463978
  atomic energy  EATOM  =     32340.34786160
  ---------------------------------------------------
  free energy    TOTEN  =      -113.38214526 eV

  energy without entropy =     -113.45364269  energy(sigma->0) =     -113.40597774


--------------------------------------------------------------------------------------------------------




----------------------------------------- Iteration    1(   6)  ---------------------------------------


    EDDIAG:  cpu time    6.80: real time   12.45
  RMM-DIIS:  cpu time   13.71: real time   27.10
    ORTHCH:  cpu time    2.00: real time    3.98
       DOS:  cpu time    0.01: real time    0.02
    --------------------------------------------
      LOOP:  cpu time   22.51: real time   43.55

 eigenvalue-minimisations  :  1800
 total energy-change (2. order) :-0.1176181E+03  (-0.9027126E+02)
 number of electron     376.0000000 magnetization 
 augmentation part      376.0000000 magnetization 

 Free energy of the ion-electron system (eV)
  ---------------------------------------------------
  alpha Z        PSCENC =      1136.56246079
  Ewald energy   TEWEN  =    -19658.67734157
  -Hartree energ DENC   =    -12225.27234302
  -exchange      EXHF   =         0.00000000
  -V(xc)+E(xc)   XCENC  =      1336.54370968
  PAW double counting   =     27518.38149996   -27812.06485035
  entropy T*S    EENTRO =         0.06057158
  eigenvalues    EBANDS =     -2866.88179295
  atomic energy  EATOM  =     32340.34786160
  ---------------------------------------------------
  free energy    TOTEN  =      -231.00022428 eV

  energy without entropy =     -231.06079586  energy(sigma->0) =     -231.02041481


--------------------------------------------------------------------------------------------------------




----------------------------------------- Iteration    1(   7)  ---------------------------------------


    EDDIAG:  cpu time    6.45: real time   12.90
  RMM-DIIS:  cpu time   12.84: real time   24.98
    ORTHCH:  cpu time    1.95: real time    3.80
       DOS:  cpu time    0.01: real time    0.01
    --------------------------------------------
      LOOP:  cpu time   21.25: real time   41.69

 eigenvalue-minimisations  :  1800
 total energy-change (2. order) :-0.5908494E+02  (-0.4763010E+02)
 number of electron     376.0000000 magnetization 
 augmentation part      376.0000000 magnetization 

 Free energy of the ion-electron system (eV)
  ---------------------------------------------------
  alpha Z        PSCENC =      1136.56246079
  Ewald energy   TEWEN  =    -19658.67734157
  -Hartree energ DENC   =    -12225.27234302
  -exchange      EXHF   =         0.00000000
  -V(xc)+E(xc)   XCENC  =      1336.54370968
  PAW double counting   =     27518.38149996   -27812.06485035
  entropy T*S    EENTRO =         0.03599620
  eigenvalues    EBANDS =     -2925.94215622
  atomic energy  EATOM  =     32340.34786160
  ---------------------------------------------------
  free energy    TOTEN  =      -290.08516293 eV

  energy without entropy =     -290.12115913  energy(sigma->0) =     -290.09716166


--------------------------------------------------------------------------------------------------------




----------------------------------------- Iteration    1(   8)  ---------------------------------------


    EDDIAG:  cpu time    6.54: real time   12.63
  RMM-DIIS:  cpu time   13.95: real time   20.71
    ORTHCH:  cpu time    2.00: real time    2.00
       DOS:  cpu time    0.01: real time    0.01
    --------------------------------------------
      LOOP:  cpu time   22.50: real time   35.35

 eigenvalue-minimisations  :  1800
 total energy-change (2. order) :-0.2371060E+02  (-0.1963359E+02)
 number of electron     376.0000000 magnetization 
 augmentation part      376.0000000 magnetization 

 Free energy of the ion-electron system (eV)
  ---------------------------------------------------
  alpha Z        PSCENC =      1136.56246079
  Ewald energy   TEWEN  =    -19658.67734157
  -Hartree energ DENC   =    -12225.27234302
  -exchange      EXHF   =         0.00000000
  -V(xc)+E(xc)   XCENC  =      1336.54370968
  PAW double counting   =     27518.38149996   -27812.06485035
  entropy T*S    EENTRO =         0.02179848
  eigenvalues    EBANDS =     -2949.63856339
  atomic energy  EATOM  =     32340.34786160
  ---------------------------------------------------
  free energy    TOTEN  =      -313.79576783 eV

  energy without entropy =     -313.81756630  energy(sigma->0) =     -313.80303398


--------------------------------------------------------------------------------------------------------




----------------------------------------- Iteration    1(   9)  ---------------------------------------


    EDDIAG:  cpu time    6.62: real time    6.62
  RMM-DIIS:  cpu time   39.60: real time   61.88
    ORTHCH:  cpu time    2.00: real time    3.88
       DOS:  cpu time    0.01: real time    0.02
    --------------------------------------------
      LOOP:  cpu time   48.24: real time   72.40

 eigenvalue-minimisations  :  5714
 total energy-change (2. order) :-0.2352656E+02  (-0.2161503E+02)
 number of electron     376.0000000 magnetization 
 augmentation part      376.0000000 magnetization 

 Free energy of the ion-electron system (eV)
  ---------------------------------------------------
  alpha Z        PSCENC =      1136.56246079
  Ewald energy   TEWEN  =    -19658.67734157
  -Hartree energ DENC   =    -12225.27234302
  -exchange      EXHF   =         0.00000000
  -V(xc)+E(xc)   XCENC  =      1336.54370968
  PAW double counting   =     27518.38149996   -27812.06485035
  entropy T*S    EENTRO =        -0.02753478
  eigenvalues    EBANDS =     -2973.11578576
  atomic energy  EATOM  =     32340.34786160
  ---------------------------------------------------
  free energy    TOTEN  =      -337.32232344 eV

  energy without entropy =     -337.29478867  energy(sigma->0) =     -337.31314518


--------------------------------------------------------------------------------------------------------




----------------------------------------- Iteration    1(  10)  ---------------------------------------


    EDDIAG:  cpu time    6.59: real time    9.03
  RMM-DIIS:  cpu time   34.72: real time   66.14
    ORTHCH:  cpu time    1.94: real time    3.82
       DOS:  cpu time    0.01: real time    0.01
    --------------------------------------------
      LOOP:  cpu time   43.26: real time   78.99

 eigenvalue-minimisations  :  5695
 total energy-change (2. order) :-0.5114189E+00  (-0.9131605E+00)
 number of electron     376.0000000 magnetization 
 augmentation part      376.0000000 magnetization 

 Free energy of the ion-electron system (eV)
  ---------------------------------------------------
  alpha Z        PSCENC =      1136.56246079
  Ewald energy   TEWEN  =    -19658.67734157
  -Hartree energ DENC   =    -12225.27234302
  -exchange      EXHF   =         0.00000000
  -V(xc)+E(xc)   XCENC  =      1336.54370968
  PAW double counting   =     27518.38149996   -27812.06485035
  entropy T*S    EENTRO =        -0.02928537
  eigenvalues    EBANDS =     -2973.62545403
  atomic energy  EATOM  =     32340.34786160
  ---------------------------------------------------
  free energy    TOTEN  =      -337.83374231 eV

  energy without entropy =     -337.80445694  energy(sigma->0) =     -337.82398052


--------------------------------------------------------------------------------------------------------




----------------------------------------- Iteration    1(  11)  ---------------------------------------


    EDDIAG:  cpu time    6.41: real time   11.71
  RMM-DIIS:  cpu time   35.27: real time   68.52
    ORTHCH:  cpu time    1.93: real time    3.86
       DOS:  cpu time    0.01: real time    0.02
    --------------------------------------------
      LOOP:  cpu time   43.62: real time   84.11

 eigenvalue-minimisations  :  5232
 total energy-change (2. order) :-0.3910512E+00  (-0.3327647E+00)
 number of electron     376.0000000 magnetization 
 augmentation part      376.0000000 magnetization 

 Free energy of the ion-electron system (eV)
  ---------------------------------------------------
  alpha Z        PSCENC =      1136.56246079
  Ewald energy   TEWEN  =    -19658.67734157
  -Hartree energ DENC   =    -12225.27234302
  -exchange      EXHF   =         0.00000000
  -V(xc)+E(xc)   XCENC  =      1336.54370968
  PAW double counting   =     27518.38149996   -27812.06485035
  entropy T*S    EENTRO =        -0.03571473
  eigenvalues    EBANDS =     -2974.01007588
  atomic energy  EATOM  =     32340.34786160
  ---------------------------------------------------
  free energy    TOTEN  =      -338.22479352 eV

  energy without entropy =     -338.18907879  energy(sigma->0) =     -338.21288861


--------------------------------------------------------------------------------------------------------




----------------------------------------- Iteration    1(  12)  ---------------------------------------


    EDDIAG:  cpu time    6.19: real time   11.64
  RMM-DIIS:  cpu time   30.09: real time   46.44
    ORTHCH:  cpu time    2.09: real time    3.62
       DOS:  cpu time    0.01: real time    0.01
    CHARGE:  cpu time    2.07: real time    2.07
    MIXING:  cpu time    0.01: real time    0.01
    --------------------------------------------
      LOOP:  cpu time   40.46: real time   63.78

 eigenvalue-minimisations  :  4495
 total energy-change (2. order) :-0.1707201E+00  (-0.1510994E+00)
 number of electron     376.0000692 magnetization 
 augmentation part      105.8433170 magnetization 

 Broyden mixing:
  rms(total) = 0.60899E+01    rms(broyden)= 0.60779E+01
  rms(prec ) = 0.67966E+01
  weight for this iteration     100.00

 Free energy of the ion-electron system (eV)
  ---------------------------------------------------
  alpha Z        PSCENC =      1136.56246079
  Ewald energy   TEWEN  =    -19658.67734157
  -Hartree energ DENC   =    -12225.27234302
  -exchange      EXHF   =         0.00000000
  -V(xc)+E(xc)   XCENC  =      1336.54370968
  PAW double counting   =     27518.38149996   -27812.06485035
  entropy T*S    EENTRO =        -0.03691965
  eigenvalues    EBANDS =     -2974.17959109
  atomic energy  EATOM  =     32340.34786160
  ---------------------------------------------------
  free energy    TOTEN  =      -338.39551365 eV

  energy without entropy =     -338.35859400  energy(sigma->0) =     -338.38320710


--------------------------------------------------------------------------------------------------------




----------------------------------------- Iteration    1(  13)  ---------------------------------------


    POTLOK:  cpu time    0.35: real time    0.35
    SETDIJ:  cpu time    0.06: real time    0.06
    EDDIAG:  cpu time    7.04: real time   13.43
  RMM-DIIS:  cpu time   29.68: real time   55.28
    ORTHCH:  cpu time    2.10: real time    4.20
       DOS:  cpu time    0.00: real time    0.02
    CHARGE:  cpu time    2.19: real time    4.26
    MIXING:  cpu time    0.01: real time    0.02
    --------------------------------------------
      LOOP:  cpu time   41.44: real time   77.63

 eigenvalue-minimisations  :  4053
 total energy-change (2. order) : 0.2105893E+02  (-0.4789502E+02)
 number of electron     376.0000777 magnetization 
 augmentation part      118.5992344 magnetization 

 Broyden mixing:
  rms(total) = 0.97239E+01    rms(broyden)= 0.97206E+01
  rms(prec ) = 0.11066E+02
  weight for this iteration     100.00

 eigenvalues of (default mixing * dielectric matrix)
  average eigenvalue GAMMA=   0.2895
  0.2895

 Free energy of the ion-electron system (eV)
  ---------------------------------------------------
  alpha Z        PSCENC =      1136.56246079
  Ewald energy   TEWEN  =    -19658.67734157
  -Hartree energ DENC   =    -12410.53506386
  -exchange      EXHF   =         0.00000000
  -V(xc)+E(xc)   XCENC  =      1359.05800991
  PAW double counting   =     29460.76256195   -29719.44168732
  entropy T*S    EENTRO =        -0.07477261
  eigenvalues    EBANDS =     -2825.33861288
  atomic energy  EATOM  =     32340.34786160
  ---------------------------------------------------
  free energy    TOTEN  =      -317.33658399 eV

  energy without entropy =     -317.26181138  energy(sigma->0) =     -317.31165979


--------------------------------------------------------------------------------------------------------




----------------------------------------- Iteration    1(  14)  ---------------------------------------


    POTLOK:  cpu time    0.37: real time    0.76
    SETDIJ:  cpu time    0.06: real time    0.12
    EDDIAG:  cpu time    7.12: real time   13.95
  RMM-DIIS:  cpu time   31.63: real time   61.21
    ORTHCH:  cpu time    2.03: real time    4.06
       DOS:  cpu time    0.01: real time    0.01
    CHARGE:  cpu time    2.07: real time    4.13
    MIXING:  cpu time    0.01: real time    0.02
    --------------------------------------------
      LOOP:  cpu time   43.30: real time   84.25

 eigenvalue-minimisations  :  4192
 total energy-change (2. order) :-0.7563683E+02  (-0.8324017E+01)
 number of electron     376.0000690 magnetization 
 augmentation part      110.2801232 magnetization 

 Broyden mixing:
  rms(total) = 0.16480E+02    rms(broyden)= 0.16478E+02
  rms(prec ) = 0.19685E+02
  weight for this iteration     100.00

 eigenvalues of (default mixing * dielectric matrix)
  average eigenvalue GAMMA=   0.2046
  0.3406  0.0687

 Free energy of the ion-electron system (eV)
  ---------------------------------------------------
  alpha Z        PSCENC =      1136.56246079
  Ewald energy   TEWEN  =    -19658.67734157
  -Hartree energ DENC   =    -12406.26835298
  -exchange      EXHF   =         0.00000000
  -V(xc)+E(xc)   XCENC  =      1356.94290107
  PAW double counting   =     29955.50059099   -30233.04248390
  entropy T*S    EENTRO =         0.10101992
  eigenvalues    EBANDS =     -2884.44006578
  atomic energy  EATOM  =     32340.34786160
  ---------------------------------------------------
  free energy    TOTEN  =      -392.97340986 eV

  energy without entropy =     -393.07442978  energy(sigma->0) =     -393.00708316


--------------------------------------------------------------------------------------------------------




----------------------------------------- Iteration    1(  15)  ---------------------------------------


    POTLOK:  cpu time    0.33: real time    0.68
    SETDIJ:  cpu time    0.06: real time    0.12
    EDDIAG:  cpu time    6.84: real time   13.67
  RMM-DIIS:  cpu time   28.99: real time   57.69
    ORTHCH:  cpu time    2.06: real time    4.11
       DOS:  cpu time    0.01: real time    0.02
    CHARGE:  cpu time    2.06: real time    3.97
    MIXING:  cpu time    0.01: real time    0.03
    --------------------------------------------
      LOOP:  cpu time   40.36: real time   80.29

 eigenvalue-minimisations  :  3850
 total energy-change (2. order) : 0.5603763E+02  (-0.1903907E+01)
 number of electron     376.0000727 magnetization 
 augmentation part      109.9815627 magnetization 

 Broyden mixing:
  rms(total) = 0.11539E+02    rms(broyden)= 0.11535E+02
  rms(prec ) = 0.14059E+02
  weight for this iteration     100.00

 eigenvalues of (default mixing * dielectric matrix)
  average eigenvalue GAMMA=   0.1742
  0.3436  0.0896  0.0896

 Free energy of the ion-electron system (eV)
  ---------------------------------------------------
  alpha Z        PSCENC =      1136.56246079
  Ewald energy   TEWEN  =    -19658.67734157
  -Hartree energ DENC   =    -12410.48905723
  -exchange      EXHF   =         0.00000000
  -V(xc)+E(xc)   XCENC  =      1356.55027851
  PAW double counting   =     30232.46308225   -30515.73037275
  entropy T*S    EENTRO =         0.05988301
  eigenvalues    EBANDS =     -2818.02257426
  atomic energy  EATOM  =     32340.34786160
  ---------------------------------------------------
  free energy    TOTEN  =      -336.93577965 eV

  energy without entropy =     -336.99566266  energy(sigma->0) =     -336.95574066


--------------------------------------------------------------------------------------------------------




----------------------------------------- Iteration    1(  16)  ---------------------------------------


    POTLOK:  cpu time    0.36: real time    0.73
    SETDIJ:  cpu time    0.06: real time    0.11
    EDDIAG:  cpu time    6.64: real time   11.94
  RMM-DIIS:  cpu time   24.52: real time   47.93
    ORTHCH:  cpu time    1.88: real time    3.77
       DOS:  cpu time    0.01: real time    0.02
    CHARGE:  cpu time    1.97: real time    3.94
    MIXING:  cpu time    0.01: real time    0.02
    --------------------------------------------
      LOOP:  cpu time   35.45: real time   68.45

 eigenvalue-minimisations  :  3768
 total energy-change (2. order) : 0.4054673E+02  (-0.1728969E+01)
 number of electron     376.0000731 magnetization 
 augmentation part      109.9378976 magnetization 

 Broyden mixing:
  rms(total) = 0.91336E+01    rms(broyden)= 0.91313E+01
  rms(prec ) = 0.11189E+02
  weight for this iteration     100.00

 eigenvalues of (default mixing * dielectric matrix)
  average eigenvalue GAMMA=   0.2636
  0.4186  0.4186  0.1675  0.0496

 Free energy of the ion-electron system (eV)
  ---------------------------------------------------
  alpha Z        PSCENC =      1136.56246079
  Ewald energy   TEWEN  =    -19658.67734157
  -Hartree energ DENC   =    -12407.99719701
  -exchange      EXHF   =         0.00000000
  -V(xc)+E(xc)   XCENC  =      1356.52609851
  PAW double counting   =     30382.35793324   -30671.07563083
  entropy T*S    EENTRO =        -0.09529497
  eigenvalues    EBANDS =     -2774.33793548
  atomic energy  EATOM  =     32340.34786160
  ---------------------------------------------------
  free energy    TOTEN  =      -296.38904574 eV

  energy without entropy =     -296.29375076  energy(sigma->0) =     -296.35728075


--------------------------------------------------------------------------------------------------------




----------------------------------------- Iteration    1(  17)  ---------------------------------------


    POTLOK:  cpu time    0.28: real time    0.56
    SETDIJ:  cpu time    0.06: real time    0.12
    EDDIAG:  cpu time    6.40: real time   12.35
  RMM-DIIS:  cpu time   25.24: real time   39.86
    ORTHCH:  cpu time    1.94: real time    2.73
       DOS:  cpu time    0.01: real time    0.01
    CHARGE:  cpu time    2.05: real time    4.11
    MIXING:  cpu time    0.01: real time    0.02
    --------------------------------------------
      LOOP:  cpu time   35.99: real time   59.77

 eigenvalue-minimisations  :  3868
 total energy-change (2. order) :-0.7786224E+02  (-0.4781257E+01)
 number of electron     376.0000563 magnetization 
 augmentation part      110.0373128 magnetization 

 Broyden mixing:
  rms(total) = 0.13759E+02    rms(broyden)= 0.13757E+02
  rms(prec ) = 0.16469E+02
  weight for this iteration     100.00

 eigenvalues of (default mixing * dielectric matrix)
  average eigenvalue GAMMA=   0.3350
  0.7030  0.7030  0.1097  0.1097  0.0497

 Free energy of the ion-electron system (eV)
  ---------------------------------------------------
  alpha Z        PSCENC =      1136.56246079
  Ewald energy   TEWEN  =    -19658.67734157
  -Hartree energ DENC   =    -12399.66029401
  -exchange      EXHF   =         0.00000000
  -V(xc)+E(xc)   XCENC  =      1355.51495260
  PAW double counting   =     30615.46875952   -30904.04689179
  entropy T*S    EENTRO =        -0.20525474
  eigenvalues    EBANDS =     -2859.55553418
  atomic energy  EATOM  =     32340.34786160
  ---------------------------------------------------
  free energy    TOTEN  =      -374.25128178 eV

  energy without entropy =     -374.04602704  energy(sigma->0) =     -374.18286353


--------------------------------------------------------------------------------------------------------




----------------------------------------- Iteration    1(  18)  ---------------------------------------


    POTLOK:  cpu time    0.35: real time    0.69
    SETDIJ:  cpu time    0.06: real time    0.12
    EDDIAG:  cpu time    6.59: real time   13.19
  RMM-DIIS:  cpu time   25.45: real time   46.55
    ORTHCH:  cpu time    2.03: real time    4.05
       DOS:  cpu time    0.01: real time    0.02
    CHARGE:  cpu time    2.08: real time    4.17
    MIXING:  cpu time    0.01: real time    0.02
    --------------------------------------------
      LOOP:  cpu time   36.58: real time   68.81

 eigenvalue-minimisations  :  3869
 total energy-change (2. order) :-0.3142172E+02  (-0.4084486E+01)
 number of electron     376.0000706 magnetization 
 augmentation part      110.3704159 magnetization 

 Broyden mixing:
  rms(total) = 0.14787E+02    rms(broyden)= 0.14786E+02
  rms(prec ) = 0.17932E+02
  weight for this iteration     100.00

 eigenvalues of (default mixing * dielectric matrix)
  average eigenvalue GAMMA=   0.3451
  1.1468  0.5795  0.1064  0.1064  0.0827  0.0492

 Free energy of the ion-electron system (eV)
  ---------------------------------------------------
  alpha Z        PSCENC =      1136.56246079
  Ewald energy   TEWEN  =    -19658.67734157
  -Hartree energ DENC   =    -12386.40587934
  -exchange      EXHF   =         0.00000000
  -V(xc)+E(xc)   XCENC  =      1355.52828746
  PAW double counting   =     31241.94844603   -31533.59861190
  entropy T*S    EENTRO =        -0.03758361
  eigenvalues    EBANDS =     -2901.34064353
  atomic energy  EATOM  =     32340.34786160
  ---------------------------------------------------
  free energy    TOTEN  =      -405.67300408 eV

  energy without entropy =     -405.63542047  energy(sigma->0) =     -405.66047621


--------------------------------------------------------------------------------------------------------




----------------------------------------- Iteration    1(  19)  ---------------------------------------


    POTLOK:  cpu time    0.36: real time    0.70
    SETDIJ:  cpu time    0.06: real time    0.12
    EDDIAG:  cpu time    6.74: real time   13.43
  RMM-DIIS:  cpu time   27.16: real time   46.54
    ORTHCH:  cpu time    1.96: real time    1.96
       DOS:  cpu time    0.01: real time    0.01
    CHARGE:  cpu time    1.99: real time    1.99
    MIXING:  cpu time    0.01: real time    0.02
    --------------------------------------------
      LOOP:  cpu time   38.28: real time   64.77

 eigenvalue-minimisations  :  3831
 total energy-change (2. order) : 0.5546556E+02  (-0.2123321E+01)
 number of electron     376.0000574 magnetization 
 augmentation part      111.2414584 magnetization 

 Broyden mixing:
  rms(total) = 0.11916E+02    rms(broyden)= 0.11914E+02
  rms(prec ) = 0.14687E+02
  weight for this iteration     100.00

 eigenvalues of (default mixing * dielectric matrix)
  average eigenvalue GAMMA=   0.3322
  1.2988  0.5751  0.1118  0.1118  0.1115  0.0497  0.0669

 Free energy of the ion-electron system (eV)
  ---------------------------------------------------
  alpha Z        PSCENC =      1136.56246079
  Ewald energy   TEWEN  =    -19658.67734157
  -Hartree energ DENC   =    -12376.20895503
  -exchange      EXHF   =         0.00000000
  -V(xc)+E(xc)   XCENC  =      1355.88097782
  PAW double counting   =     31729.14836211   -32023.79341551
  entropy T*S    EENTRO =         0.00951396
  eigenvalues    EBANDS =     -2853.47691217
  atomic energy  EATOM  =     32340.34786160
  ---------------------------------------------------
  free energy    TOTEN  =      -350.20744800 eV

  energy without entropy =     -350.21696196  energy(sigma->0) =     -350.21061932


--------------------------------------------------------------------------------------------------------




----------------------------------------- Iteration    1(  20)  ---------------------------------------


    POTLOK:  cpu time    0.30: real time    0.30
    SETDIJ:  cpu time    0.06: real time    0.06
    EDDIAG:  cpu time    6.58: real time   11.67
  RMM-DIIS:  cpu time   27.79: real time   52.88
    ORTHCH:  cpu time    2.01: real time    4.03
       DOS:  cpu time    0.01: real time    0.02
    CHARGE:  cpu time    2.09: real time    4.14
    MIXING:  cpu time    0.02: real time    0.04
    --------------------------------------------
      LOOP:  cpu time   38.86: real time   73.13

 eigenvalue-minimisations  :  3831
 total energy-change (2. order) : 0.1670444E+02  (-0.1496292E+01)
 number of electron     376.0000655 magnetization 
 augmentation part      111.5092164 magnetization 

 Broyden mixing:
  rms(total) = 0.10334E+02    rms(broyden)= 0.10333E+02
  rms(prec ) = 0.12521E+02
  weight for this iteration     100.00

 eigenvalues of (default mixing * dielectric matrix)
  average eigenvalue GAMMA=   0.3260
  1.2845  0.6415  0.1668  0.1668  0.1689  0.0492  0.0651  0.0651

 Free energy of the ion-electron system (eV)
  ---------------------------------------------------
  alpha Z        PSCENC =      1136.56246079
  Ewald energy   TEWEN  =    -19658.67734157
  -Hartree energ DENC   =    -12373.48595387
  -exchange      EXHF   =         0.00000000
  -V(xc)+E(xc)   XCENC  =      1355.98415440
  PAW double counting   =     31924.75226597   -32221.33192662
  entropy T*S    EENTRO =        -0.00395679
  eigenvalues    EBANDS =     -2837.65057453
  atomic energy  EATOM  =     32340.34786160
  ---------------------------------------------------
  free energy    TOTEN  =      -333.50301062 eV

  energy without entropy =     -333.49905383  energy(sigma->0) =     -333.50169169


--------------------------------------------------------------------------------------------------------




----------------------------------------- Iteration    1(  21)  ---------------------------------------


    POTLOK:  cpu time    0.35: real time    0.70
    SETDIJ:  cpu time    0.06: real time    0.12
    EDDIAG:  cpu time    6.53: real time   12.93
  RMM-DIIS:  cpu time   22.64: real time   40.97
    ORTHCH:  cpu time    1.90: real time    2.22
       DOS:  cpu time    0.01: real time    0.01
    CHARGE:  cpu time    1.95: real time    1.95
    MIXING:  cpu time    0.02: real time    0.02
    --------------------------------------------
      LOOP:  cpu time   33.45: real time   58.91

 eigenvalue-minimisations  :  3752
 total energy-change (2. order) : 0.7033788E+01  (-0.1379236E+01)
 number of electron     376.0000658 magnetization 
 augmentation part      111.3213850 magnetization 

 Broyden mixing:
  rms(total) = 0.10259E+02    rms(broyden)= 0.10257E+02
  rms(prec ) = 0.12911E+02
  weight for this iteration     100.00

 eigenvalues of (default mixing * dielectric matrix)
  average eigenvalue GAMMA=   0.3171
  1.3344  0.7006  0.2024  0.1772  0.1772  0.0493  0.0774  0.0677  0.0677

 Free energy of the ion-electron system (eV)
  ---------------------------------------------------
  alpha Z        PSCENC =      1136.56246079
  Ewald energy   TEWEN  =    -19658.67734157
  -Hartree energ DENC   =    -12366.05928293
  -exchange      EXHF   =         0.00000000
  -V(xc)+E(xc)   XCENC  =      1355.62042944
  PAW double counting   =     32008.26636613   -32306.33247357
  entropy T*S    EENTRO =        -0.04119134
  eigenvalues    EBANDS =     -2836.15605095
  atomic energy  EATOM  =     32340.34786160
  ---------------------------------------------------
  free energy    TOTEN  =      -326.46922240 eV

  energy without entropy =     -326.42803106  energy(sigma->0) =     -326.45549195


--------------------------------------------------------------------------------------------------------




----------------------------------------- Iteration    1(  22)  ---------------------------------------


    POTLOK:  cpu time    0.28: real time    0.28
    SETDIJ:  cpu time    0.06: real time    0.06
    EDDIAG:  cpu time    6.07: real time    6.59
  RMM-DIIS:  cpu time   24.22: real time   30.04
    ORTHCH:  cpu time    1.91: real time    3.83
       DOS:  cpu time    0.01: real time    0.02
    CHARGE:  cpu time    1.99: real time    3.71
    MIXING:  cpu time    0.02: real time    0.04
    --------------------------------------------
      LOOP:  cpu time   34.56: real time   44.56

 eigenvalue-minimisations  :  3904
 total energy-change (2. order) : 0.2048654E+02  (-0.7592554E+00)
 number of electron     376.0000727 magnetization 
 augmentation part      111.2417812 magnetization 

 Broyden mixing:
  rms(total) = 0.10023E+02    rms(broyden)= 0.10020E+02
  rms(prec ) = 0.12457E+02
  weight for this iteration     100.00

 eigenvalues of (default mixing * dielectric matrix)
  average eigenvalue GAMMA=   0.2998
  1.3643  0.7166  0.2072  0.2072  0.1608  0.0868  0.0757  0.0757  0.0488  0.0550

 Free energy of the ion-electron system (eV)
  ---------------------------------------------------
  alpha Z        PSCENC =      1136.56246079
  Ewald energy   TEWEN  =    -19658.67734157
  -Hartree energ DENC   =    -12361.90252364
  -exchange      EXHF   =         0.00000000
  -V(xc)+E(xc)   XCENC  =      1355.39219669
  PAW double counting   =     32112.81670463   -32413.06331886
  entropy T*S    EENTRO =         0.00609926
  eigenvalues    EBANDS =     -2817.46482503
  atomic energy  EATOM  =     32340.34786160
  ---------------------------------------------------
  free energy    TOTEN  =      -305.98268614 eV

  energy without entropy =     -305.98878540  energy(sigma->0) =     -305.98471923


--------------------------------------------------------------------------------------------------------




----------------------------------------- Iteration    1(  23)  ---------------------------------------


    POTLOK:  cpu time    0.29: real time    0.58
    SETDIJ:  cpu time    0.06: real time    0.12
    EDDIAG:  cpu time    6.83: real time   13.53
  RMM-DIIS:  cpu time   29.14: real time   52.80
    ORTHCH:  cpu time    2.17: real time    4.35
       DOS:  cpu time    0.01: real time    0.02
    CHARGE:  cpu time    2.16: real time    4.29
    MIXING:  cpu time    0.02: real time    0.04
    --------------------------------------------
      LOOP:  cpu time   40.67: real time   75.73

 eigenvalue-minimisations  :  3805
 total energy-change (2. order) : 0.1201248E+02  (-0.4915681E+00)
 number of electron     376.0000653 magnetization 
 augmentation part      111.1801304 magnetization 

 Broyden mixing:
  rms(total) = 0.81557E+01    rms(broyden)= 0.81529E+01
  rms(prec ) = 0.10374E+02
  weight for this iteration     100.00

 eigenvalues of (default mixing * dielectric matrix)
  average eigenvalue GAMMA=   0.3103
  1.4960  0.6895  0.3125  0.3125  0.1428  0.1428  0.0955  0.0641  0.0641  0.0492
  0.0440

 Free energy of the ion-electron system (eV)
  ---------------------------------------------------
  alpha Z        PSCENC =      1136.56246079
  Ewald energy   TEWEN  =    -19658.67734157
  -Hartree energ DENC   =    -12361.27514419
  -exchange      EXHF   =         0.00000000
  -V(xc)+E(xc)   XCENC  =      1355.32328284
  PAW double counting   =     32155.23623290   -32455.11156716
  entropy T*S    EENTRO =         0.00365753
  eigenvalues    EBANDS =     -2806.37965086
  atomic energy  EATOM  =     32340.34786160
  ---------------------------------------------------
  free energy    TOTEN  =      -293.97020812 eV

  energy without entropy =     -293.97386565  energy(sigma->0) =     -293.97142730


--------------------------------------------------------------------------------------------------------




----------------------------------------- Iteration    1(  24)  ---------------------------------------


    POTLOK:  cpu time    0.40: real time    0.80
    SETDIJ:  cpu time    0.06: real time    0.12
    EDDIAG:  cpu time    7.41: real time   13.59
  RMM-DIIS:  cpu time   34.03: real time   57.01
    ORTHCH:  cpu time    2.03: real time    2.03
       DOS:  cpu time    0.01: real time    0.01
    CHARGE:  cpu time    2.06: real time    2.06
    MIXING:  cpu time    0.02: real time    0.02
    --------------------------------------------
      LOOP:  cpu time   46.02: real time   75.65

 eigenvalue-minimisations  :  4110
 total energy-change (2. order) :-0.7463631E+01  (-0.5229144E+00)
 number of electron     376.0000717 magnetization 
 augmentation part      111.0468065 magnetization 

 Broyden mixing:
  rms(total) = 0.85023E+01    rms(broyden)= 0.84995E+01
  rms(prec ) = 0.10979E+02
  weight for this iteration     100.00

 eigenvalues of (default mixing * dielectric matrix)
  average eigenvalue GAMMA=   0.3293
  1.8872  0.5880  0.3950  0.3950  0.1542  0.1542  0.0995  0.0662  0.0662  0.0492
  0.0563  0.0405

 Free energy of the ion-electron system (eV)
  ---------------------------------------------------
  alpha Z        PSCENC =      1136.56246079
  Ewald energy   TEWEN  =    -19658.67734157
  -Hartree energ DENC   =    -12362.09905627
  -exchange      EXHF   =         0.00000000
  -V(xc)+E(xc)   XCENC  =      1355.25502001
  PAW double counting   =     32250.43289124   -32551.71179107
  entropy T*S    EENTRO =         0.02254526
  eigenvalues    EBANDS =     -2811.56642883
  atomic energy  EATOM  =     32340.34786160
  ---------------------------------------------------
  free energy    TOTEN  =      -301.43383884 eV

  energy without entropy =     -301.45638409  energy(sigma->0) =     -301.44135392


--------------------------------------------------------------------------------------------------------




----------------------------------------- Iteration    1(  25)  ---------------------------------------


    POTLOK:  cpu time    0.36: real time    0.36
    SETDIJ:  cpu time    0.06: real time    0.06
    EDDIAG:  cpu time    7.00: real time   11.90
  RMM-DIIS:  cpu time   26.74: real time   45.54
    ORTHCH:  cpu time    2.00: real time    4.00
       DOS:  cpu time    0.01: real time    0.01
    CHARGE:  cpu time    2.06: real time    4.12
    MIXING:  cpu time    0.02: real time    0.05
    --------------------------------------------
      LOOP:  cpu time   38.25: real time   66.05

 eigenvalue-minimisations  :  3902
 total energy-change (2. order) : 0.1207853E+02  (-0.3726815E+00)
 number of electron     376.0000662 magnetization 
 augmentation part      111.3567599 magnetization 

 Broyden mixing:
  rms(total) = 0.63491E+01    rms(broyden)= 0.63447E+01
  rms(prec ) = 0.80034E+01
  weight for this iteration     100.00

 eigenvalues of (default mixing * dielectric matrix)
  average eigenvalue GAMMA=   0.3177
  1.9966  0.5831  0.3916  0.3916  0.1587  0.1587  0.1073  0.0682  0.0682  0.0600
  0.0491  0.0554  0.0416

 Free energy of the ion-electron system (eV)
  ---------------------------------------------------
  alpha Z        PSCENC =      1136.56246079
  Ewald energy   TEWEN  =    -19658.67734157
  -Hartree energ DENC   =    -12362.24578075
  -exchange      EXHF   =         0.00000000
  -V(xc)+E(xc)   XCENC  =      1355.80812567
  PAW double counting   =     32536.18782658   -32840.58331054
  entropy T*S    EENTRO =        -0.03411406
  eigenvalues    EBANDS =     -2796.72104064
  atomic energy  EATOM  =     32340.34786160
  ---------------------------------------------------
  free energy    TOTEN  =      -289.35531293 eV

  energy without entropy =     -289.32119887  energy(sigma->0) =     -289.34394158


--------------------------------------------------------------------------------------------------------




----------------------------------------- Iteration    1(  26)  ---------------------------------------


    POTLOK:  cpu time    0.35: real time    0.70
    SETDIJ:  cpu time    0.06: real time    0.12
    EDDIAG:  cpu time    6.76: real time   12.98
  RMM-DIIS:  cpu time   26.64: real time   52.09
    ORTHCH:  cpu time    1.94: real time    3.43
       DOS:  cpu time    0.01: real time    0.02
    CHARGE:  cpu time    2.00: real time    3.94
    MIXING:  cpu time    0.02: real time    0.04
    --------------------------------------------
      LOOP:  cpu time   37.78: real time   73.32

 eigenvalue-minimisations  :  3853
 total energy-change (2. order) : 0.4957534E+01  (-0.2221192E+00)
 number of electron     376.0000720 magnetization 
 augmentation part      111.4503156 magnetization 

 Broyden mixing:
  rms(total) = 0.50203E+01    rms(broyden)= 0.50176E+01
  rms(prec ) = 0.64158E+01
  weight for this iteration     100.00

 eigenvalues of (default mixing * dielectric matrix)
  average eigenvalue GAMMA=   0.3227
  2.1798  0.5903  0.3988  0.3988  0.2224  0.1548  0.1548  0.0933  0.0656  0.0656
  0.0626  0.0491  0.0442  0.0381

 Free energy of the ion-electron system (eV)
  ---------------------------------------------------
  alpha Z        PSCENC =      1136.56246079
  Ewald energy   TEWEN  =    -19658.67734157
  -Hartree energ DENC   =    -12361.86793381
  -exchange      EXHF   =         0.00000000
  -V(xc)+E(xc)   XCENC  =      1355.91231395
  PAW double counting   =     32639.69997935   -32945.34736734
  entropy T*S    EENTRO =        -0.07975052
  eigenvalues    EBANDS =     -2790.94800170
  atomic energy  EATOM  =     32340.34786160
  ---------------------------------------------------
  free energy    TOTEN  =      -284.39777925 eV

  energy without entropy =     -284.31802873  energy(sigma->0) =     -284.37119575


--------------------------------------------------------------------------------------------------------




----------------------------------------- Iteration    1(  27)  ---------------------------------------


    POTLOK:  cpu time    0.30: real time    0.61
    SETDIJ:  cpu time    0.06: real time    0.12
    EDDIAG:  cpu time    6.21: real time   12.02
  RMM-DIIS:  cpu time   26.19: real time   50.31
    ORTHCH:  cpu time    1.97: real time    3.94
       DOS:  cpu time    0.01: real time    0.02
    CHARGE:  cpu time    2.02: real time    4.04
[...]
         0         1         2         3         4         5         6         7         8         9
 total charge-density along one line
 
 pseudopotential strength for first ion, spin component:           1
 -8.980  -0.021   0.006   0.067   0.003  -9.420  -0.020   0.006
 -0.021  -9.079  -0.006   0.004   0.095  -0.020  -9.516  -0.006
  0.006  -0.006  -8.942   0.006  -0.010   0.006  -0.006  -9.384
  0.067   0.004   0.006  -9.070   0.029   0.065   0.004   0.006
  0.003   0.095  -0.010   0.029  -8.990   0.003   0.092  -0.010
 -9.420  -0.020   0.006   0.065   0.003  -9.821  -0.019   0.006
 -0.020  -9.516  -0.006   0.004   0.092  -0.019  -9.913  -0.006
  0.006  -0.006  -9.384   0.006  -0.010   0.006  -0.006  -9.785
  0.065   0.004   0.006  -9.507   0.028   0.063   0.004   0.006
  0.003   0.092  -0.010   0.028  -9.430   0.002   0.089  -0.010
  0.000   0.004   0.004  -0.001  -0.002   0.000   0.004   0.004
  0.000   0.008   0.007  -0.002  -0.004   0.000   0.008   0.007
 -0.002   0.011  -0.000   0.000  -0.001  -0.001   0.010  -0.000
  0.000   0.000   0.010  -0.000   0.000   0.000   0.000   0.009
 -0.001   0.000   0.000   0.011   0.001  -0.001   0.000   0.000
 -0.001   0.015  -0.000   0.000  -0.001  -0.001   0.014  -0.000
  0.000  -0.000   0.014  -0.000   0.000   0.000  -0.000   0.013
 -0.002   0.000   0.000   0.015   0.001  -0.002   0.000   0.000
 total augmentation occupancy for first ion, spin component:           1
  5.586  -0.663   0.045   1.369   0.103  -3.660   0.235   0.014  -0.002  -0.064   0.048  -0.002  -0.195  -0.004   0.254   0.024
 -0.663   4.198   0.034   0.106   1.417   0.228  -3.507  -0.002  -0.006   0.056  -0.089   0.015  -0.162   0.064   0.044   0.035
  0.045   0.034   6.943   0.143   0.012   0.012  -0.004  -3.974  -0.114  -0.056  -0.063   0.008   0.055   0.226   0.005  -0.009
  1.369   0.106   0.143   4.216   0.484   0.016  -0.009  -0.118  -3.534  -0.097  -0.012   0.002  -0.058   0.037  -0.240   0.003
  0.103   1.417   0.012   0.484   5.541  -0.065   0.044  -0.055  -0.097  -3.772   0.050  -0.009   0.255  -0.021   0.230  -0.055
 -3.660   0.228   0.012   0.016  -0.065   3.168   0.040  -0.046  -0.867   0.043  -0.045   0.004   0.194   0.007  -0.296  -0.028
  0.235  -3.507  -0.004  -0.009   0.044   0.040   3.769  -0.020  -0.060  -0.975   0.092  -0.017   0.236  -0.075  -0.023  -0.048
  0.014  -0.002  -3.974  -0.118  -0.055  -0.046  -0.020   2.839   0.110   0.080   0.034  -0.004  -0.055  -0.217  -0.005   0.010
 -0.002  -0.006  -0.114  -3.534  -0.097  -0.867  -0.060   0.110   3.788  -0.135   0.028  -0.005   0.043  -0.044   0.320  -0.003
 -0.064   0.056  -0.056  -0.097  -3.772   0.043  -0.975   0.080  -0.135   3.380  -0.061   0.012  -0.297   0.029  -0.235   0.061
  0.048  -0.089  -0.063  -0.012   0.050  -0.045   0.092   0.034   0.028  -0.061   1.878  -0.351  -0.015   0.124  -0.023   0.003
 -0.002   0.015   0.008   0.002  -0.009   0.004  -0.017  -0.004  -0.005   0.012  -0.351   0.078   0.003  -0.024   0.006  -0.001
 -0.195  -0.162   0.055  -0.058   0.255   0.194   0.236  -0.055   0.043  -0.297  -0.015   0.003   0.266   0.009  -0.004  -0.043
 -0.004   0.064   0.226   0.037  -0.021   0.007  -0.075  -0.217  -0.044   0.029   0.124  -0.024   0.009   0.265   0.006  -0.001
  0.254   0.044   0.005  -0.240   0.230  -0.296  -0.023  -0.005   0.320  -0.235  -0.023   0.006  -0.004   0.006   0.252   0.001
  0.024   0.035  -0.009   0.003  -0.055  -0.028  -0.048   0.010  -0.003   0.061   0.003  -0.001  -0.043  -0.001   0.001   0.008
  0.002  -0.011  -0.052  -0.007   0.007  -0.002   0.014   0.046   0.009  -0.007  -0.025   0.006  -0.001  -0.043  -0.001   0.000
 -0.052   0.001  -0.001   0.050  -0.028   0.059  -0.001   0.001  -0.064   0.035   0.005  -0.001   0.001  -0.001  -0.041  -0.000


------------------------ aborting loop because EDIFF is reached ----------------------------------------


    CHARGE:  cpu time    2.00: real time    4.00
    FORLOC:  cpu time    0.18: real time    0.37
    FORNL :  cpu time   11.12: real time   21.60
    STRESS:  cpu time   33.46: real time   64.38
    FORCOR:  cpu time    0.50: real time    0.99
    FORHAR:  cpu time    0.25: real time    0.49
    MIXING:  cpu time    0.08: real time    0.16
    OFIELD:  cpu time    0.00: real time    0.00

  FORCE on cell =-STRESS in cart. coord.  units (eV):
  Direction    XX          YY          ZZ          XY          YZ          ZX
  --------------------------------------------------------------------------------------
  Alpha Z  1136.56246  1136.56246  1136.56246
  Ewald   -7541.57308 -7168.54718 -4948.67472    34.42492    17.07871    47.93155
  Hartree  3450.29046  3626.45270  5292.77344    23.02406    13.31527    40.74090
  E(xc)   -2003.03067 -2002.78014 -2001.68703     0.07285    -0.02529    -0.01897
  Local   -1340.75198 -1889.29715 -5757.34337   -57.32912   -31.29078   -86.83135
  n-local -1841.07424 -1834.51647 -1836.82120    -0.01937     0.44925    -1.38783
  augment  1208.33902  1208.40485  1205.69712    -0.01337     0.32745     0.44174
  Kinetic  6835.24777  6821.43934  6801.42224    -0.75794     1.35548     0.33578
  Fock        0.00000     0.00000     0.00000     0.00000     0.00000     0.00000
  -------------------------------------------------------------------------------------
  Total     -95.99026  -102.28159  -108.07106    -0.59796     1.21009     1.21182
  in kB    -204.09293  -217.46944  -229.77893    -1.27138     2.57288     2.57655
  external pressure =     -217.11 kB  Pullay stress =        0.00 kB


 VOLUME and BASIS-vectors are now :
 -----------------------------------------------------------------------------
  energy-cutoff  :      400.00
  volume of cell :      753.55
      direct lattice vectors                 reciprocal lattice vectors
     9.401191000  0.000000000 -0.084129000     0.106369501  0.000000000  0.000000000
     0.000000000  5.359467000  0.000000000     0.000000000  0.186585718  0.000000000
     0.000000000  0.000000000 14.955651000     0.000598353  0.000000000  0.066864358

  length of vectors
     9.401567418  5.359467000 14.955651000     0.106369501  0.186585718  0.066867035


 FORCES acting on ions
    electron-ion (+dipol)            ewald-force                    non-local-force                 convergence-correction
 -----------------------------------------------------------------------------------------------
   -.183E+02 -.438E+01 -.821E+02   0.179E+02 0.419E+01 0.840E+02   0.278E+00 0.343E+00 -.283E+01   0.219E+00 0.347E-02 0.459E+00
   -.111E+02 0.895E+01 -.956E+02   0.107E+02 -.873E+01 0.987E+02   0.240E+00 -.454E+00 -.262E+01   0.134E+00 0.186E-02 0.860E-01
   0.808E+01 -.130E+02 -.819E+02   -.844E+01 0.123E+02 0.832E+02   -.147E+00 0.840E+00 -.261E+01   -.191E+00 0.216E-02 0.673E+00
   -.213E+02 -.322E+01 -.832E+02   0.205E+02 0.290E+01 0.857E+02   0.865E+00 0.101E+00 -.271E+01   -.126E+00 -.125E-01 -.194E+00
   -.229E+02 0.560E+01 0.112E+03   0.240E+02 -.613E+01 -.113E+03   -.164E+00 -.133E+00 0.321E+01   0.143E-01 0.859E-02 0.480E+00
   -.198E+01 -.762E+01 0.974E+02   0.251E+01 0.826E+01 -.995E+02   -.435E+00 0.218E-01 0.367E+01   0.585E+00 0.792E-01 -.282E+00
   0.158E+01 0.106E+02 0.898E+02   -.423E+00 -.110E+02 -.918E+02   -.578E+00 -.168E+00 0.319E+01   0.826E-04 -.109E-01 0.824E-01
   -.579E+01 -.166E+02 0.932E+02   0.781E+01 0.171E+02 -.956E+02   -.678E+00 0.271E+00 0.353E+01   -.545E+00 -.372E-01 -.326E+00
   -.811E+00 -.377E+01 0.773E+02   0.470E+00 0.641E+01 -.791E+02   0.308E+00 -.166E+01 0.189E+01   -.274E+00 0.241E-01 -.347E+00
   -.669E+01 0.507E+01 0.783E+02   0.657E+01 -.772E+01 -.805E+02   0.733E-01 0.162E+01 0.199E+01   -.108E+00 0.303E-02 -.141E+00
   -.211E+02 -.784E+01 0.712E+02   0.198E+02 0.104E+02 -.732E+02   0.558E+00 -.155E+01 0.215E+01   0.263E+00 0.134E-01 -.403E+00
   -.600E+01 -.154E+02 0.626E+02   0.518E+01 0.120E+02 -.634E+02   0.390E+00 0.214E+01 0.118E+01   0.112E+00 -.203E-01 -.393E+00
   -.134E+02 -.191E+01 -.116E+03   0.136E+02 0.456E+00 0.115E+03   -.280E+00 0.491E+00 0.109E+01   0.202E+00 -.126E-01 -.453E+00
   -.126E+02 0.658E+01 -.116E+03   0.135E+02 -.477E+01 0.114E+03   -.429E+00 -.814E+00 0.580E+00   -.425E+00 0.202E-01 0.593E+00
   -.454E+01 0.107E+02 -.852E+02   0.488E+01 -.120E+02 0.843E+02   -.239E+00 0.418E+00 -.363E+00   -.159E+00 -.720E-02 -.142E+00
   0.299E+02 -.361E+01 -.114E+03   -.291E+02 0.545E+01 0.112E+03   -.123E+01 -.630E+00 0.103E+01   0.453E+00 0.285E-03 0.253E+00
   -.104E+03 -.107E+03 0.115E+03   0.115E+03 0.114E+03 -.121E+03   -.111E+02 -.905E+01 0.627E+01   -.213E+00 0.214E+00 0.641E-01
   -.106E+03 0.108E+03 0.114E+03   0.116E+03 -.116E+03 -.120E+03   -.111E+02 0.927E+01 0.656E+01   0.631E+00 0.922E+00 -.657E+00
   -.100E+03 -.106E+03 0.115E+03   0.111E+03 0.114E+03 -.121E+03   -.112E+02 -.903E+01 0.704E+01   0.477E+00 -.148E+00 -.534E+00
   -.925E+02 0.103E+03 0.847E+02   0.102E+03 -.109E+03 -.878E+02   -.102E+02 0.835E+01 0.444E+01   -.149E+00 -.244E+00 -.487E+00
   0.490E+02 0.126E+03 -.461E+02   -.559E+02 -.139E+03 0.475E+02   0.562E+01 0.130E+02 -.669E+00   0.993E+00 0.234E+00 -.380E+00
   0.511E+02 -.123E+03 -.528E+02   -.554E+02 0.135E+03 0.544E+02   0.369E+01 -.125E+02 -.123E+01   0.349E+00 -.176E+00 -.174E+00
   0.554E+02 0.121E+03 -.405E+02   -.592E+02 -.133E+03 0.394E+02   0.458E+01 0.121E+02 0.839E+00   -.837E+00 0.856E-01 0.588E+00
   0.636E+02 -.128E+03 -.499E+02   -.695E+02 0.141E+03 0.513E+02   0.574E+01 -.127E+02 -.509E+00   -.106E+00 0.602E-01 -.395E+00
   0.116E+03 0.165E+03 -.677E+02   -.120E+03 -.177E+03 0.680E+02   0.219E+01 0.119E+02 -.146E+01   0.518E+00 -.171E+00 0.709E+00
   0.118E+03 -.162E+03 -.872E+02   -.121E+03 0.171E+03 0.883E+02   0.199E+01 -.917E+01 -.246E+01   0.968E+00 -.119E+00 0.108E+01
   0.131E+03 0.154E+03 -.548E+02   -.136E+03 -.165E+03 0.559E+02   0.442E+01 0.109E+02 -.137E+01   -.499E+00 0.107E+00 -.411E+00
   0.119E+03 -.155E+03 -.780E+02   -.121E+03 0.165E+03 0.806E+02   0.195E+01 -.101E+02 -.406E+01   -.489E+00 0.171E+00 0.823E+00
   0.604E+02 0.189E+03 -.836E+02   -.682E+02 -.201E+03 0.866E+02   0.817E+01 0.111E+02 -.469E+01   -.326E-01 0.499E+00 0.113E+01
   0.683E+02 -.195E+03 -.728E+02   -.761E+02 0.208E+03 0.758E+02   0.743E+01 -.134E+02 -.405E+01   0.422E+00 0.263E+00 0.391E+00
   0.753E+02 0.190E+03 -.582E+02   -.828E+02 -.203E+03 0.598E+02   0.799E+01 0.128E+02 -.324E+01   -.216E+00 -.144E+00 0.838E+00
   0.746E+02 -.176E+03 -.684E+02   -.836E+02 0.187E+03 0.727E+02   0.986E+01 -.101E+02 -.487E+01   -.486E+00 -.234E+00 -.353E-02
   0.917E+02 0.110E+03 -.504E+02   -.101E+03 -.123E+03 0.511E+02   0.103E+02 0.125E+02 0.218E+00   -.100E+00 0.361E+00 -.448E+00
   0.869E+02 -.116E+03 -.443E+02   -.970E+02 0.130E+03 0.440E+02   0.103E+02 -.139E+02 0.102E+01   0.400E+00 -.395E+00 -.550E-01
   0.877E+02 0.117E+03 -.513E+02   -.974E+02 -.130E+03 0.514E+02   0.102E+02 0.138E+02 0.567E+00   0.767E-01 -.896E-01 -.119E+00
   0.104E+03 -.109E+03 -.397E+02   -.114E+03 0.122E+03 0.380E+02   0.107E+02 -.131E+02 0.193E+01   -.119E+00 0.530E-01 0.328E+00
   0.140E+03 0.683E+02 0.140E+03   -.152E+03 -.772E+02 -.150E+03   0.114E+02 0.960E+01 0.109E+02   0.772E+00 -.964E+00 -.699E+00
   0.139E+03 -.692E+02 0.145E+03   -.149E+03 0.794E+02 -.156E+03   0.110E+02 -.981E+01 0.109E+02   -.195E+00 -.122E+00 0.602E-01
   0.134E+03 0.749E+02 0.134E+03   -.143E+03 -.864E+02 -.144E+03   0.932E+01 0.111E+02 0.103E+02   -.530E+00 0.217E+00 -.461E+00
   0.142E+03 -.611E+02 0.128E+03   -.153E+03 0.692E+02 -.137E+03   0.113E+02 -.838E+01 0.101E+02   -.236E-01 0.381E+00 -.546E+00
   -.189E+03 0.128E+02 -.906E+02   0.200E+03 -.116E+02 0.963E+02   -.114E+02 -.756E+00 -.647E+01   0.191E+00 -.350E+00 0.191E+00
   -.193E+03 -.193E+02 -.956E+02   0.203E+03 0.190E+02 0.101E+03   -.941E+01 0.676E+00 -.681E+01   -.552E+00 -.351E+00 0.109E+01
   -.186E+03 0.534E+01 -.861E+02   0.195E+03 -.340E+01 0.921E+02   -.875E+01 -.227E+01 -.659E+01   -.152E+00 0.324E+00 0.941E-01
   -.179E+03 -.184E+02 -.808E+02   0.188E+03 0.185E+02 0.854E+02   -.961E+01 -.101E+00 -.614E+01   0.411E+00 -.157E-02 0.817E+00
   -.149E+03 -.250E+02 -.420E+02   0.164E+03 0.263E+02 0.454E+02   -.147E+02 -.162E+01 -.301E+01   -.571E+00 0.339E-01 -.780E-01
   -.138E+03 0.212E+02 -.514E+02   0.151E+03 -.223E+02 0.566E+02   -.127E+02 0.169E+01 -.449E+01   -.382E+00 -.275E+00 -.522E+00
   -.147E+03 -.179E+02 -.538E+02   0.162E+03 0.182E+02 0.585E+02   -.148E+02 -.524E+00 -.444E+01   0.189E+00 -.639E-01 0.200E+00
   -.151E+03 0.291E+02 -.414E+02   0.165E+03 -.311E+02 0.446E+02   -.142E+02 0.221E+01 -.291E+01   0.169E+00 0.129E+00 -.799E-01
   -.273E+02 -.160E+03 0.134E+03   0.277E+02 0.175E+03 -.144E+03   -.497E-01 -.146E+02 0.976E+01   -.688E+00 -.329E+00 -.276E+00
   -.234E+02 0.165E+03 0.132E+03   0.230E+02 -.178E+03 -.141E+03   0.377E+00 0.141E+02 0.925E+01   -.486E+00 -.246E+00 -.202E+00
   -.109E+02 -.158E+03 0.128E+03   0.831E+01 0.171E+03 -.135E+03   0.222E+01 -.132E+02 0.836E+01   -.597E-01 0.324E+00 -.867E+00
   -.155E+02 0.171E+03 0.160E+03   0.136E+02 -.185E+03 -.170E+03   0.917E+00 0.149E+02 0.909E+01   0.451E+00 -.571E-01 -.225E+00
 -----------------------------------------------------------------------------------------------
   -.115E+02 -.625E+01 -.512E+02   -.252E-12 0.000E+00 0.398E-12   0.112E+02 0.627E+01 0.504E+02   0.288E+00 -.432E-01 0.731E+00
 
 
 POSITION                                       TOTAL-FORCE (eV/Angst)
 -----------------------------------------------------------------------------------
      1.54285      2.59385      2.67760         0.087617      0.162344     -0.499961
      1.54285      2.76561     10.07013        -0.028874     -0.230336      0.515898
      6.30677      5.27359      2.63497        -0.700525      0.189337     -0.551676
      6.24344      0.08588     10.11336        -0.103362     -0.229993     -0.391214
      1.64833      2.53423     14.53758         0.951412     -0.649417      1.872556
      1.64833      2.82523      7.05975         0.685211      0.742853      1.282843
      6.34893      5.21397     14.49551         0.579356     -0.579331      1.345934
      6.34893      0.14550      7.01769         0.804474      0.740196      0.801370
      3.11771      0.15764     12.27164        -0.307118      1.012319     -0.273838
      3.11771      5.20182      4.79382        -0.153179     -1.023965     -0.331152
      7.81830      2.80594     12.22958        -0.444425      1.027343     -0.265048
      7.82984      2.52209      4.75165        -0.315596     -1.294448      0.021191
      3.13642      0.02315      7.55748         0.062972     -0.973942     -0.495513
      3.13642      5.33631      0.10166         0.048619      1.010881     -0.569976
      7.83701      2.70289      7.66366        -0.052065     -0.931971     -1.396799
      7.83701      2.65658      0.05188        -0.001174      1.214156     -0.380367
      2.90745      1.43316     13.81466        -0.395845     -1.767276     -0.051636
      2.90745      3.92630      6.33683        -0.370333      1.748481     -0.037402
      7.60805      4.11290     13.77259        -0.414590     -1.779534      0.105844
      7.60805      1.24657      6.18461        -0.566493      1.731397      0.909571
      0.03630      1.97680      3.64809        -0.253216      0.250642      0.348861
      0.03630      3.38267     11.12592        -0.199019     -0.356730      0.213740
      4.73689      4.65653      3.60603        -0.087145      0.389110      0.317599
      4.73689      0.70294     11.08385        -0.315099     -0.199252      0.455559
      0.24362      2.11901      8.65952        -0.415719      0.108634     -0.406692
      0.24362      3.19023      1.15956        -0.494730      0.043209     -0.239693
      4.94422      4.79874      8.69991        -0.308741      0.210139     -0.659626
      4.94422      0.56072      1.13963        -0.413311     -0.215260     -0.566919
      1.65572      1.14784      1.23406         0.334807     -0.197334     -0.573456
      1.65572      4.21163      8.71188         0.131414      0.150237     -0.665250
      6.35631      3.82757      1.26747         0.250486     -0.093249     -0.733521
      6.35631      1.53190      8.66982         0.408361      0.260507     -0.567070
      1.70607      1.10622     11.04375         0.579429      0.165630      0.434281
      1.70607      4.26911      3.56592         0.616726     -0.118731      0.608666
      6.40667      3.77009     11.00168         0.624425      0.090891      0.575942
      6.48025      1.58938      3.52320         0.497009     -0.036545      0.564681
      1.77685      1.08186      6.32026         0.469846     -0.259767      0.035823
      1.77685      4.27760     13.79808         0.458338      0.299880      0.040022
      6.47745      3.76160      6.27819         0.441972     -0.171652      0.174106
      6.47745      1.59787     13.67349         0.565345      0.123813      0.348563
      2.82475      1.85903      8.62320        -0.256724      0.151519     -0.610263
      2.75903      3.50044      1.14596         0.056958     -0.028912     -0.568115
      7.45963      4.53876      8.58172         0.111300      0.001682     -0.482286
      7.45963      0.82071      1.10390         0.046067     -0.084839     -0.653270
      2.84956      1.63791      3.68379        -0.281895     -0.277027      0.299634
      2.78965      3.72155     11.16215        -0.074667      0.255052      0.176384
      7.55015      4.31765      3.64172         0.089348     -0.373561      0.474447
      7.55015      1.04182     11.11955        -0.169797      0.282305      0.256807
      4.61330      0.72164      6.28428        -0.403190     -0.435409      0.160978
      4.61330      4.63783     13.76211        -0.438838      0.365394      0.079852
      9.31389      3.40138      6.24222        -0.413517     -0.436515      0.213042
      9.31389      1.95809     13.86568        -0.522306      0.017047     -0.663451
 -----------------------------------------------------------------------------------
    total drift:                                0.002428     -0.025047     -0.016660


--------------------------------------------------------------------------------------------------------



  FREE ENERGIE OF THE ION-ELECTRON SYSTEM (eV)
  ---------------------------------------------------
  free  energy   TOTEN  =      -277.67179863 eV

  energy  without entropy=     -277.67402091  energy(sigma->0) =     -277.67253939
 


--------------------------------------------------------------------------------------------------------


    POTLOK:  cpu time    0.39: real time    0.77


--------------------------------------------------------------------------------------------------------


 Quasi-Newton relaxation of ions (Broydens 2nd method)
  g(Force)  = 0.256E+01   g(Stress)= 0.000E+00

 Reset! Starting new Quasi-Newton update for ions 


--------------------------------------------------------------------------------------------------------


     LOOP+:  cpu time 1922.22: real time 3384.30
    4ORBIT:  cpu time    0.00: real time    0.00

 total amount of memory used by VASP on root node   542857. kBytes
========================================================================

   base      :      30000. kBytes
   nonlr-proj:      10755. kBytes
   fftplans  :      29624. kBytes
   grid      :      59888. kBytes
   one-center:        808. kBytes
   wavefun   :     411782. kBytes
 
  
  
 General timing and accounting informations for this job:
 ========================================================
  
                  Total CPU time used (sec):     1931.892
                            User time (sec):     1931.214
                          System time (sec):        0.678
                         Elapsed time (sec):     3402.957
  
                   Maximum memory used (kb):      611896.
                   Average memory used (kb):           0.
  
                          Minor page faults:       174919
                          Major page faults:            0
                 Voluntary context switches:          570
