 running on    1 total cores
 distrk:  each k-point on    1 cores,    1 groups
 distr:  one band on    1 cores,    1 groups
 using from now: INCAR     
 vasp.5.3.5 31Mar14 (build Aug 29 2014 19:41:47) complex                        
  
 POSCAR found type information on POSCAR  Fe O  F 
 POSCAR found :  3 types and      52 ions
 scaLAPACK will be used
 LDA part: xc-table for Pade appr. of Perdew
 POSCAR, INCAR and KPOINTS ok, starting setup
 WARNING: small aliasing (wrap around) errors must be expected
 FFT: planning ...
 WAVECAR not read
 entering main loop
       N       E                     dE             d eps       ncg     rms          rms(c)
RMM:   1     0.480962983398E+04    0.48096E+04   -0.13980E+05  1800   0.136E+03
RMM:   2     0.160626552432E+04   -0.32034E+04   -0.36597E+04  1800   0.402E+02
RMM:   3     0.561856456197E+03   -0.10444E+04   -0.10614E+04  1800   0.266E+02
RMM:   4     0.138235232733E+03   -0.42362E+03   -0.36914E+03  1800   0.271E+02
RMM:   5    -0.113382145262E+03   -0.25162E+03   -0.19947E+03  1800   0.134E+02
RMM:   6    -0.231000224283E+03   -0.11762E+03   -0.90271E+02  1800   0.127E+02
RMM:   7    -0.290085162928E+03   -0.59085E+02   -0.47630E+02  1800   0.591E+01
RMM:   8    -0.313795767826E+03   -0.23711E+02   -0.19634E+02  1800   0.594E+01
RMM:   9    -0.337322323444E+03   -0.23527E+02   -0.21615E+02  5714   0.263E+01
RMM:  10    -0.337833742311E+03   -0.51142E+00   -0.91316E+00  5695   0.407E+00
RMM:  11    -0.338224793521E+03   -0.39105E+00   -0.33276E+00  5232   0.122E+00
RMM:  12    -0.338395513653E+03   -0.17072E+00   -0.15110E+00  4495   0.598E-01    0.609E+01
RMM:  13    -0.317336583990E+03    0.21059E+02   -0.47895E+02  4053   0.647E+01    0.972E+01
RMM:  14    -0.392973409858E+03   -0.75637E+02   -0.83240E+01  4192   0.212E+01    0.165E+02
RMM:  15    -0.336935779653E+03    0.56038E+02   -0.19039E+01  3850   0.134E+01    0.115E+02
RMM:  16    -0.296389045737E+03    0.40547E+02   -0.17290E+01  3768   0.114E+01    0.913E+01
RMM:  17    -0.374251281780E+03   -0.77862E+02   -0.47813E+01  3868   0.219E+01    0.138E+02
RMM:  18    -0.405673004084E+03   -0.31422E+02   -0.40845E+01  3869   0.169E+01    0.148E+02
RMM:  19    -0.350207448003E+03    0.55466E+02   -0.21233E+01  3831   0.134E+01    0.119E+02
RMM:  20    -0.333503010617E+03    0.16704E+02   -0.14963E+01  3831   0.113E+01    0.103E+02
RMM:  21    -0.326469222398E+03    0.70338E+01   -0.13792E+01  3752   0.108E+01    0.103E+02
RMM:  22    -0.305982686141E+03    0.20487E+02   -0.75926E+00  3904   0.778E+00    0.100E+02
RMM:  23    -0.293970208120E+03    0.12012E+02   -0.49157E+00  3805   0.633E+00    0.816E+01
RMM:  24    -0.301433838838E+03   -0.74636E+01   -0.52291E+00  4110   0.588E+00    0.850E+01
RMM:  25    -0.289355312932E+03    0.12079E+02   -0.37268E+00  3902   0.556E+00    0.635E+01
RMM:  26    -0.284397779252E+03    0.49575E+01   -0.22212E+00  3853   0.437E+00    0.502E+01
RMM:  27    -0.283062888463E+03    0.13349E+01   -0.18208E+00  3831   0.352E+00    0.502E+01
RMM:  28    -0.281976968768E+03    0.10859E+01   -0.13387E+00  4006   0.328E+00    0.477E+01
RMM:  29    -0.280395014836E+03    0.15820E+01   -0.97061E-01  4280   0.286E+00    0.392E+01
RMM:  30    -0.279255843084E+03    0.11392E+01   -0.35310E-01  3880   0.187E+00    0.358E+01
RMM:  31    -0.278127223646E+03    0.11286E+01   -0.18977E-01  3828   0.137E+00    0.180E+01
RMM:  32    -0.277569377199E+03    0.55785E+00   -0.62807E-02  3734   0.860E-01    0.142E+01
RMM:  33    -0.277755082648E+03   -0.18571E+00   -0.49316E-02  3890   0.648E-01    0.185E+01
RMM:  34    -0.277785878387E+03   -0.30796E-01   -0.49660E-02  3778   0.670E-01    0.180E+01
RMM:  35    -0.278045382737E+03   -0.25950E+00   -0.62563E-02  3769   0.730E-01    0.224E+01
RMM:  36    -0.277861525244E+03    0.18386E+00   -0.11786E-01  3863   0.104E+00    0.169E+01
RMM:  37    -0.277945231763E+03   -0.83707E-01   -0.92683E-02  3811   0.916E-01    0.178E+01
RMM:  38    -0.277925757859E+03    0.19474E-01   -0.16512E-01  3882   0.121E+00    0.123E+01
RMM:  39    -0.277769836774E+03    0.15592E+00   -0.98620E-02  4177   0.936E-01    0.123E+01
RMM:  40    -0.277791273044E+03   -0.21436E-01   -0.87763E-02  4466   0.856E-01    0.917E+00
RMM:  41    -0.277702670229E+03    0.88603E-01   -0.22280E-02  3765   0.517E-01    0.586E+00
RMM:  42    -0.277713449411E+03   -0.10779E-01   -0.15950E-02  4039   0.378E-01    0.536E+00
RMM:  43    -0.277707787015E+03    0.56624E-02   -0.61515E-03  3961   0.236E-01    0.499E+00
RMM:  44    -0.277703932554E+03    0.38545E-02   -0.33396E-03  3662   0.177E-01    0.428E+00
RMM:  45    -0.277695206439E+03    0.87261E-02   -0.17791E-03  3471   0.132E-01    0.366E+00
RMM:  46    -0.277684750203E+03    0.10456E-01   -0.13765E-03  3378   0.111E-01    0.307E+00
RMM:  47    -0.277682706096E+03    0.20441E-02   -0.25453E-04  2283   0.549E-02    0.290E+00
RMM:  48    -0.277679651372E+03    0.30547E-02   -0.24369E-04  2136   0.472E-02    0.254E+00
RMM:  49    -0.277677369400E+03    0.22820E-02   -0.22201E-04  2045   0.474E-02    0.224E+00
RMM:  50    -0.277674828772E+03    0.25406E-02   -0.71299E-04  3256   0.707E-02    0.168E+00
RMM:  51    -0.277672505638E+03    0.23231E-02   -0.55225E-04  2805   0.720E-02    0.110E+00
RMM:  52    -0.277672028209E+03    0.47743E-03   -0.14188E-04  1907   0.371E-02    0.939E-01
RMM:  53    -0.277671896023E+03    0.13219E-03   -0.68851E-05  1815   0.272E-02    0.819E-01
RMM:  54    -0.277671798629E+03    0.97394E-04   -0.11554E-04  1873   0.342E-02
   1 F= -.27767180E+03 E0= -.27767254E+03  d E =-.277672E+03
 BRION: g(F)=  0.256E+01 g(S)=  0.000E+00
