<?xml version="1.0" encoding="ISO-8859-1"?>
<modeling>
 <generator>
  <i name="program" type="string">vasp </i>
  <i name="version" type="string">5.3.5  </i>
  <i name="subversion" type="string">31Mar14 (build Aug 29 2014 19:41:47) complex                          parallel </i>
  <i name="platform" type="string">LinuxIFC </i>
  <i name="date" type="string">2019 01 22 </i>
  <i name="time" type="string">20:49:36 </i>
 </generator>
 <incar>
  <i type="string" name="SYSTEM"> tssm</i>
  <i type="int" name="ISTART">     0</i>
  <i type="string" name="PREC">normal</i>
  <i type="string" name="ALGO"> VeryFast</i>
  <i type="int" name="ISPIN">     1</i>
  <i name="AMIN">      0.01000000</i>
  <i type="int" name="ICHARG">     2</i>
  <i type="int" name="NELM">   300</i>
  <i type="int" name="IBRION">     1</i>
  <i name="EDIFF">      0.00010000</i>
  <i name="EDIFFG">      0.00100000</i>
  <i type="int" name="NSW">     1</i>
  <i type="int" name="ISIF">     2</i>
  <i type="int" name="ISYM">     0</i>
  <i name="ENCUT">    400.00000000</i>
  <i type="string" name="LREAL"> Auto</i>
  <i type="int" name="ISMEAR">     1</i>
  <i name="SIGMA">      0.20000000</i>
  <i type="logical" name="LWAVE"> F  </i>
  <i type="int" name="NELM">   300</i>
 </incar>
 <kpoints>
  <generation param="Gamma">
   <v type="int" name="divisions">       2        2        2 </v>
   <v name="usershift">      0.00000000       0.00000000       0.00000000 </v>
   <v name="genvec1">      0.50000000       0.00000000       0.00000000 </v>
   <v name="genvec2">      0.00000000       0.50000000       0.00000000 </v>
   <v name="genvec3">     -0.00000000       0.00000000       0.50000000 </v>
   <v name="shift">      0.00000000       0.00000000       0.00000000 </v>
  </generation>
  <varray name="kpointlist" >
   <v>       0.00000000       0.00000000       0.00000000 </v>
   <v>       0.50000000       0.00000000       0.00000000 </v>
   <v>       0.00000000       0.50000000       0.00000000 </v>
   <v>       0.50000000       0.50000000       0.00000000 </v>
   <v>       0.00000000       0.00000000       0.50000000 </v>
   <v>       0.50000000       0.00000000       0.50000000 </v>
   <v>       0.00000000       0.50000000       0.50000000 </v>
   <v>       0.50000000       0.50000000       0.50000000 </v>
  </varray>
  <varray name="weights" >
   <v>       0.12500000 </v>
   <v>       0.12500000 </v>
   <v>       0.12500000 </v>
   <v>       0.12500000 </v>
   <v>       0.12500000 </v>
   <v>       0.12500000 </v>
   <v>       0.12500000 </v>
   <v>       0.12500000 </v>
  </varray>
 </kpoints>
 <parameters>
  <separator name="general" >
   <i type="string" name="SYSTEM">tssm</i>
   <i type="logical" name="LCOMPAT"> F  </i>
  </separator>
  <separator name="electronic" >
   <i type="string" name="PREC">normal</i>
   <i name="ENMAX">    400.00000000</i>
   <i name="ENAUG">    613.61400000</i>
   <i name="EDIFF">      0.00010000</i>
   <i type="int" name="IALGO">    48</i>
   <i type="int" name="IWAVPR">    11</i>
   <i type="int" name="NBANDS">   225</i>
   <i name="NELECT">    376.00000000</i>
   <i type="int" name="TURBO">     0</i>
   <i type="int" name="IRESTART">     0</i>
   <i type="int" name="NREBOOT">     0</i>
   <i type="int" name="NMIN">     0</i>
   <i name="EREF">      0.00000000</i>
   <separator name="electronic smearing" >
    <i type="int" name="ISMEAR">     1</i>
    <i name="SIGMA">      0.20000000</i>
    <i name="KSPACING">      0.50000000</i>
    <i type="logical" name="KGAMMA"> T  </i>
   </separator>
   <separator name="electronic projectors" >
    <i type="logical" name="LREAL"> T  </i>
    <v name="ROPT">     -0.00050000     -0.00050000     -0.00050000</v>
    <i type="int" name="LMAXPAW">  -100</i>
    <i type="int" name="LMAXMIX">     2</i>
    <i type="logical" name="NLSPLINE"> F  </i>
   </separator>
   <separator name="electronic startup" >
    <i type="int" name="ISTART">     0</i>
    <i type="int" name="ICHARG">     2</i>
    <i type="int" name="INIWAV">     1</i>
   </separator>
   <separator name="electronic spin" >
    <i type="int" name="ISPIN">     1</i>
    <i type="logical" name="LNONCOLLINEAR"> F  </i>
    <v name="MAGMOM">      1.00000000      1.00000000      1.00000000      1.00000000      1.00000000      1.00000000      1.00000000      1.00000000      1.00000000      1.00000000      1.00000000      1.00000000      1.00000000      1.00000000      1.00000000      1.00000000      1.00000000      1.00000000      1.00000000      1.00000000
      1.00000000      1.00000000      1.00000000      1.00000000      1.00000000      1.00000000      1.00000000      1.00000000      1.00000000      1.00000000      1.00000000      1.00000000      1.00000000      1.00000000      1.00000000      1.00000000      1.00000000      1.00000000      1.00000000      1.00000000
      1.00000000      1.00000000      1.00000000      1.00000000      1.00000000      1.00000000      1.00000000      1.00000000      1.00000000      1.00000000      1.00000000      1.00000000</v>
    <i name="NUPDOWN">     -1.00000000</i>
    <i type="logical" name="LSORBIT"> F  </i>
    <v name="SAXIS">      0.00000000      0.00000000      1.00000000</v>
    <i type="logical" name="LSPIRAL"> F  </i>
    <v name="QSPIRAL">      0.00000000      0.00000000      0.00000000</v>
    <i type="logical" name="LZEROZ"> F  </i>
   </separator>
   <separator name="electronic exchange-correlation" >
    <i type="logical" name="LASPH"> F  </i>
    <i type="logical" name="LMETAGGA"> F  </i>
   </separator>
   <separator name="electronic convergence" >
    <i type="int" name="NELM">   300</i>
    <i type="int" name="NELMDL">   -12</i>
    <i type="int" name="NELMIN">     2</i>
    <i name="ENINI">    400.00000000</i>
    <separator name="electronic convergence detail" >
     <i type="logical" name="LDIAG"> T  </i>
     <i type="logical" name="LSUBROT"> F  </i>
     <i name="WEIMIN">      0.00100000</i>
     <i name="EBREAK">      0.00000011</i>
     <i name="DEPER">      0.30000000</i>
     <i type="int" name="NRMM">     4</i>
     <i name="TIME">      0.40000000</i>
    </separator>
   </separator>
   <separator name="electronic mixer" >
    <i name="AMIX">      0.40000000</i>
    <i name="BMIX">      1.00000000</i>
    <i name="AMIN">      0.01000000</i>
    <i name="AMIX_MAG">      1.60000000</i>
    <i name="BMIX_MAG">      1.00000000</i>
    <separator name="electronic mixer details" >
     <i type="int" name="IMIX">     4</i>
     <i type="int" name="MAXMIX">   -45</i>
     <i name="WC">    100.00000000</i>
     <i type="int" name="INIMIX">     1</i>
     <i type="int" name="MIXPRE">     1</i>
     <i type="int" name="MREMOVE">     5</i>
    </separator>
   </separator>
   <separator name="electronic dipolcorrection" >
    <i type="logical" name="LDIPOL"> F  </i>
    <i type="logical" name="LMONO"> F  </i>
    <i type="int" name="IDIPOL">     0</i>
    <i name="EPSILON">      1.00000000</i>
    <v name="DIPOL">   -100.00000000   -100.00000000   -100.00000000</v>
    <i name="EFIELD">      0.00000000</i>
   </separator>
  </separator>
  <separator name="grids" >
   <i type="int" name="NGX">    48</i>
   <i type="int" name="NGY">    28</i>
   <i type="int" name="NGZ">    80</i>
   <i type="int" name="NGXF">    96</i>
   <i type="int" name="NGYF">    56</i>
   <i type="int" name="NGZF">   160</i>
   <i type="logical" name="ADDGRID"> F  </i>
  </separator>
  <separator name="ionic" >
   <i type="int" name="NSW">     1</i>
   <i type="int" name="IBRION">     1</i>
   <i type="int" name="ISIF">     2</i>
   <i name="PSTRESS">      0.00000000</i>
   <i name="EDIFFG">      0.00100000</i>
   <i type="int" name="NFREE">     0</i>
   <i name="POTIM">      0.50000000</i>
   <i name="SMASS">     -3.00000000</i>
   <i name="SCALEE">      1.00000000</i>
  </separator>
  <separator name="ionic md" >
   <i name="TEBEG">      0.00010000</i>
   <i name="TEEND">      0.00010000</i>
   <i type="int" name="NBLOCK">     1</i>
   <i type="int" name="KBLOCK">     1</i>
   <i type="int" name="NPACO">   256</i>
   <i name="APACO">     16.00000000</i>
  </separator>
  <separator name="symmetry" >
   <i type="int" name="ISYM">     0</i>
   <i name="SYMPREC">      0.00001000</i>
  </separator>
  <separator name="dos" >
   <i type="logical" name="LORBIT"> F  </i>
   <v name="RWIGS">     -1.00000000     -1.00000000     -1.00000000</v>
   <i type="int" name="NEDOS">   301</i>
   <i name="EMIN">     10.00000000</i>
   <i name="EMAX">    -10.00000000</i>
   <i name="EFERMI">      0.00000000</i>
  </separator>
  <separator name="writing" >
   <i type="int" name="NWRITE">     2</i>
   <i type="logical" name="LWAVE"> F  </i>
   <i type="logical" name="LCHARG"> T  </i>
   <i type="logical" name="LPARD"> F  </i>
   <i type="logical" name="LVTOT"> F  </i>
   <i type="logical" name="LVHAR"> F  </i>
   <i type="logical" name="LELF"> F  </i>
   <i type="logical" name="LOPTICS"> F  </i>
   <v name="STM">      0.00000000      0.00000000      0.00000000      0.00000000      0.00000000      0.00000000      0.00000000</v>
  </separator>
  <separator name="performance" >
   <i type="int" name="NPAR">     1</i>
   <i type="int" name="NSIM">     4</i>
   <i type="int" name="NBLK">    -1</i>
   <i type="logical" name="LPLANE"> T  </i>
   <i type="logical" name="LSCALAPACK"> T  </i>
   <i type="logical" name="LSCAAWARE"> F  </i>
   <i type="logical" name="LSCALU"> F  </i>
   <i type="logical" name="LASYNC"> F  </i>
   <i type="logical" name="LORBITALREAL"> F  </i>
  </separator>
  <separator name="miscellaneous" >
   <i type="int" name="IDIOT">     3</i>
   <i type="logical" name="LMUSIC"> F  </i>
   <v name="POMASS">     55.84700000     16.00000000     18.99800000</v>
   <v name="DARWINR">      0.00000000      0.00000000      0.00000000</v>
   <v name="DARWINV">      1.00000000      1.00000000      1.00000000</v>
   <i type="logical" name="LCORR"> T  </i>
  </separator>
  <i type="logical" name="GGA_COMPAT"> T  </i>
  <i type="logical" name="LBERRY"> F  </i>
  <i type="int" name="ICORELEVEL">     0</i>
  <i type="logical" name="LDAU"> F  </i>
  <i type="int" name="I_CONSTRAINED_M">     0</i>
  <separator name="electronic exchange-correlation" >
   <i type="string" name="GGA">--</i>
   <i type="int" name="VOSKOWN">     0</i>
   <i type="logical" name="LHFCALC"> F  </i>
   <i type="string" name="PRECFOCK"></i>
   <i type="logical" name="LSYMGRAD"> F  </i>
   <i type="logical" name="LHFONE"> F  </i>
   <i type="logical" name="LRHFCALC"> F  </i>
   <i type="logical" name="LTHOMAS"> F  </i>
   <i type="logical" name="LMODELHF"> F  </i>
   <i name="ENCUT4O">     -1.00000000</i>
   <i type="int" name="EXXOEP">     0</i>
   <i type="int" name="FOURORBIT">     0</i>
   <i name="AEXX">      0.00000000</i>
   <i name="HFALPHA">      0.00000000</i>
   <i name="MCALPHA">      0.00000000</i>
   <i name="ALDAX">      1.00000000</i>
   <i name="AGGAX">      1.00000000</i>
   <i name="ALDAC">      1.00000000</i>
   <i name="AGGAC">      1.00000000</i>
   <i type="int" name="NKREDX">     1</i>
   <i type="int" name="NKREDY">     1</i>
   <i type="int" name="NKREDZ">     1</i>
   <i type="logical" name="SHIFTRED"> F  </i>
   <i type="logical" name="ODDONLY"> F  </i>
   <i type="logical" name="EVENONLY"> F  </i>
   <i type="int" name="LMAXFOCK">     0</i>
   <i type="int" name="NMAXFOCKAE">     0</i>
   <i type="logical" name="LFOCKAEDFT"> F  </i>
   <i name="HFSCREEN">      0.00000000</i>
   <i name="HFSCREENC">      0.00000000</i>
   <i type="int" name="NBANDSGWLOW">     0</i>
  </separator>
  <separator name="vdW DFT" >
   <i type="logical" name="LUSE_VDW"> F  </i>
   <i name="Zab_VDW">     -0.84910000</i>
   <i name="PARAM1">      0.12340000</i>
   <i name="PARAM2">      1.00000000</i>
   <i name="PARAM3">      0.00000000</i>
  </separator>
  <separator name="model GW" >
   <i type="int" name="MODEL_GW">     0</i>
   <i name="MODEL_EPS0">      8.69476215</i>
   <i name="MODEL_ALPHA">      1.00000000</i>
  </separator>
  <separator name="linear response parameters" >
   <i type="logical" name="LEPSILON"> F  </i>
   <i type="logical" name="LRPA"> F  </i>
   <i type="logical" name="LNABLA"> F  </i>
   <i type="logical" name="LVEL"> F  </i>
   <i type="int" name="KINTER">     0</i>
   <i name="CSHIFT">      0.10000000</i>
   <i name="OMEGAMAX">     -1.00000000</i>
   <i name="DEG_THRESHOLD">      0.00200000</i>
  </separator>
  <separator name="orbital magnetization" >
   <i type="logical" name="NUCIND"> F  </i>
   <v name="MAGPOS">      0.00000000      0.00000000      0.00000000</v>
   <i type="logical" name="LNICSALL"> T  </i>
   <i type="logical" name="ORBITALMAG"> F  </i>
   <i type="logical" name="LMAGBLOCH"> F  </i>
   <i type="logical" name="LCHIMAG"> F  </i>
   <i type="logical" name="LGAUGE"> T  </i>
   <i type="int" name="MAGATOM">     0</i>
   <v name="MAGDIPOL">      0.00000000      0.00000000      0.00000000</v>
   <v name="AVECCONST">      0.00000000      0.00000000      0.00000000</v>
  </separator>
  <separator name="response functions" >
   <i type="logical" name="LADDER"> F  </i>
   <i type="logical" name="LFXC"> F  </i>
   <i type="logical" name="LHARTREE"> T  </i>
   <i type="int" name="IBSE">     0</i>
   <i type="logical" name="LTCTE"> F  </i>
   <i type="logical" name="LTETE"> F  </i>
   <i type="logical" name="LTRIPLET"> F  </i>
   <i type="logical" name="LFXCEPS"> F  </i>
   <i type="logical" name="LFXHEG"> F  </i>
   <i type="logical" name="L2ORDER"> F  </i>
   <i type="logical" name="LUSEW"> F  </i>
   <i name="ENCUTGW">     -2.00000000</i>
   <i name="ENCUTGWSOFT">     -2.00000000</i>
   <i name="ENCUTLF">     -1.00000000</i>
   <i type="int" name="LMAXMP2">    -1</i>
   <i name="SCISSOR">      0.00000000</i>
   <i type="int" name="NOMEGA">     0</i>
   <i type="int" name="NOMEGAR">     0</i>
   <i type="int" name="NBANDSGW">    -1</i>
   <i type="int" name="NBANDSO">    -1</i>
   <i type="int" name="NBANDSV">    -1</i>
   <i type="int" name="NELM">   300</i>
   <i type="int" name="DIM">     3</i>
   <i type="int" name="ANTIRES">     0</i>
   <i name="OMEGAMAX">    -30.00000000</i>
   <i name="OMEGAMIN">    -30.00000000</i>
   <i name="OMEGATL">   -200.00000000</i>
   <i type="int" name="OMEGAGRID">     0</i>
   <i name="CSHIFT">     -0.10000000</i>
   <i type="logical" name="SELFENERGY"> F  </i>
   <i type="logical" name="LSPECTRAL"> F  </i>
   <i type="logical" name="ODDONLYGW"> F  </i>
   <i type="logical" name="EVENONLYGW"> F  </i>
   <i type="int" name="NKREDLFX">     1</i>
   <i type="int" name="NKREDLFY">     1</i>
   <i type="int" name="NKREDLFZ">     1</i>
   <i type="int" name="MAXMEM">  1800</i>
   <i type="int" name="TELESCOPE">     0</i>
   <i type="int" name="TAUPAR">     1</i>
  </separator>
  <separator name="External order field" >
   <i name="OFIELD_KAPPA">      0.00000000</i>
   <v name="OFIELD_K">      0.00000000      0.00000000      0.00000000</v>
   <i name="OFIELD_Q6_NEAR">      0.00000000</i>
   <i name="OFIELD_Q6_FAR">      0.00000000</i>
   <i name="OFIELD_A">      0.00000000</i>
  </separator>
 </parameters>
 <atominfo>
  <atoms>      52 </atoms>
  <types>       3 </types>
  <array name="atoms" >
   <dimension dim="1">ion</dimension>
   <field type="string">element</field>
   <field type="int">atomtype</field>
   <set>
    <rc><c>Fe</c><c>   1</c></rc>
    <rc><c>Fe</c><c>   1</c></rc>
    <rc><c>Fe</c><c>   1</c></rc>
    <rc><c>Fe</c><c>   1</c></rc>
    <rc><c>Fe</c><c>   1</c></rc>
    <rc><c>Fe</c><c>   1</c></rc>
    <rc><c>Fe</c><c>   1</c></rc>
    <rc><c>Fe</c><c>   1</c></rc>
    <rc><c>Fe</c><c>   1</c></rc>
    <rc><c>Fe</c><c>   1</c></rc>
    <rc><c>Fe</c><c>   1</c></rc>
    <rc><c>Fe</c><c>   1</c></rc>
    <rc><c>Fe</c><c>   1</c></rc>
    <rc><c>Fe</c><c>   1</c></rc>
    <rc><c>Fe</c><c>   1</c></rc>
    <rc><c>Fe</c><c>   1</c></rc>
    <rc><c>O </c><c>   2</c></rc>
    <rc><c>O </c><c>   2</c></rc>
    <rc><c>O </c><c>   2</c></rc>
    <rc><c>O </c><c>   2</c></rc>
    <rc><c>F </c><c>   3</c></rc>
    <rc><c>F </c><c>   3</c></rc>
    <rc><c>F </c><c>   3</c></rc>
    <rc><c>F </c><c>   3</c></rc>
    <rc><c>F </c><c>   3</c></rc>
    <rc><c>F </c><c>   3</c></rc>
    <rc><c>F </c><c>   3</c></rc>
    <rc><c>F </c><c>   3</c></rc>
    <rc><c>F </c><c>   3</c></rc>
    <rc><c>F </c><c>   3</c></rc>
    <rc><c>F </c><c>   3</c></rc>
    <rc><c>F </c><c>   3</c></rc>
    <rc><c>F </c><c>   3</c></rc>
    <rc><c>F </c><c>   3</c></rc>
    <rc><c>F </c><c>   3</c></rc>
    <rc><c>F </c><c>   3</c></rc>
    <rc><c>F </c><c>   3</c></rc>
    <rc><c>F </c><c>   3</c></rc>
    <rc><c>F </c><c>   3</c></rc>
    <rc><c>F </c><c>   3</c></rc>
    <rc><c>F </c><c>   3</c></rc>
    <rc><c>F </c><c>   3</c></rc>
    <rc><c>F </c><c>   3</c></rc>
    <rc><c>F </c><c>   3</c></rc>
    <rc><c>F </c><c>   3</c></rc>
    <rc><c>F </c><c>   3</c></rc>
    <rc><c>F </c><c>   3</c></rc>
    <rc><c>F </c><c>   3</c></rc>
    <rc><c>F </c><c>   3</c></rc>
    <rc><c>F </c><c>   3</c></rc>
    <rc><c>F </c><c>   3</c></rc>
    <rc><c>F </c><c>   3</c></rc>
   </set>
  </array>
  <array name="atomtypes" >
   <dimension dim="1">type</dimension>
   <field type="int">atomspertype</field>
   <field type="string">element</field>
   <field>mass</field>
   <field>valence</field>
   <field type="string">pseudopotential</field>
   <set>
    <rc><c>  16</c><c>Fe</c><c>     55.84700000</c><c>      8.00000000</c><c>  PAW_PBE Fe 06Sep2000                  </c></rc>
    <rc><c>   4</c><c>O </c><c>     16.00000000</c><c>      6.00000000</c><c>  PAW_PBE O 08Apr2002                   </c></rc>
    <rc><c>  32</c><c>F </c><c>     18.99800000</c><c>      7.00000000</c><c>  PAW_PBE F 08Apr2002                   </c></rc>
   </set>
  </array>
 </atominfo>
 <structure name="initialpos" >
  <crystal>
   <varray name="basis" >
    <v>       9.40119100       0.00000000      -0.08412900 </v>
    <v>       0.00000000       5.35946700       0.00000000 </v>
    <v>       0.00000000       0.00000000      14.95565100 </v>
   </varray>
   <i name="volume">    753.54605297 </i>
   <varray name="rec_basis" >
    <v>       0.10636950       0.00000000       0.00000000 </v>
    <v>       0.00000000       0.18658572       0.00000000 </v>
    <v>       0.00059835       0.00000000       0.06686436 </v>
   </varray>
  </crystal>
  <varray name="positions" >
   <v>       0.16411200       0.48397600       0.17995900 </v>
   <v>       0.16411200       0.51602400       0.67425600 </v>
   <v>       0.67084800       0.98397600       0.17995900 </v>
   <v>       0.66411200       0.01602400       0.67995900 </v>
   <v>       0.17533200       0.47285200       0.97303200 </v>
   <v>       0.17533200       0.52714800       0.47303200 </v>
   <v>       0.67533200       0.97285200       0.97303200 </v>
   <v>       0.67533200       0.02714800       0.47303200 </v>
   <v>       0.33162900       0.02941400       0.82240100 </v>
   <v>       0.33162900       0.97058600       0.32240100 </v>
   <v>       0.83162900       0.52354900       0.82240100 </v>
   <v>       0.83285600       0.47058600       0.32240100 </v>
   <v>       0.33361900       0.00432000       0.50720300 </v>
   <v>       0.33361900       0.99568000       0.00867400 </v>
   <v>       0.83361900       0.50432000       0.51711500 </v>
   <v>       0.83361900       0.49568000       0.00815800 </v>
   <v>       0.30926400       0.26740800       0.92544800 </v>
   <v>       0.30926400       0.73259200       0.42544800 </v>
   <v>       0.80926400       0.76740800       0.92544800 </v>
   <v>       0.80926400       0.23259200       0.41808200 </v>
   <v>       0.00386100       0.36884200       0.24394900 </v>
   <v>       0.00386100       0.63115800       0.74394900 </v>
   <v>       0.50386100       0.86884200       0.24394900 </v>
   <v>       0.50386100       0.13115800       0.74394900 </v>
   <v>       0.02591400       0.39537700       0.57915900 </v>
   <v>       0.02591400       0.59525200       0.07767900 </v>
   <v>       0.52591400       0.89537700       0.58467200 </v>
   <v>       0.52591400       0.10462300       0.07915900 </v>
   <v>       0.17611800       0.21417000       0.08350500 </v>
   <v>       0.17611800       0.78583000       0.58350500 </v>
   <v>       0.67611800       0.71417000       0.08855200 </v>
   <v>       0.67611800       0.28583000       0.58350500 </v>
   <v>       0.18147400       0.20640400       0.73945400 </v>
   <v>       0.18147400       0.79655500       0.23945400 </v>
   <v>       0.68147400       0.70344500       0.73945400 </v>
   <v>       0.68930100       0.29655500       0.23945400 </v>
   <v>       0.18900300       0.20186000       0.42366300 </v>
   <v>       0.18900300       0.79814000       0.92366300 </v>
   <v>       0.68900300       0.70186000       0.42366300 </v>
   <v>       0.68900300       0.29814000       0.91814500 </v>
   <v>       0.30046700       0.34686800       0.57827500 </v>
   <v>       0.29347700       0.65313200       0.07827500 </v>
   <v>       0.79347700       0.84686800       0.57827500 </v>
   <v>       0.79347700       0.15313200       0.07827500 </v>
   <v>       0.30310600       0.30561100       0.24801900 </v>
   <v>       0.29673400       0.69438900       0.74801900 </v>
   <v>       0.80310600       0.80561100       0.24801900 </v>
   <v>       0.80310600       0.19438900       0.74801900 </v>
   <v>       0.49071400       0.13464800       0.42295500 </v>
   <v>       0.49071400       0.86535200       0.92295500 </v>
   <v>       0.99071400       0.63464800       0.42295500 </v>
   <v>       0.99071400       0.36535200       0.93269300 </v>
  </varray>
 </structure>
 <calculation>
  <scstep>
   <time name="diag">    7.30   14.59</time>
   <time name="diis">   14.81   29.36</time>
   <time name="orth">    1.99    3.60</time>
   <time name="total">   24.58   48.51</time>
   <energy>
    <i name="alphaZ">   1136.56246079 </i>
    <i name="ewald"> -19658.67734157 </i>
    <i name="hartreedc"> -12225.27234302 </i>
    <i name="XCdc">   1336.54370968 </i>
    <i name="pawpsdc">  27518.38149996 </i>
    <i name="pawaedc"> -27812.06485035 </i>
    <i name="eentropy">      0.03589286 </i>
    <i name="bandstr">   2173.77294403 </i>
    <i name="atom">  32340.34786160 </i>
    <i name="e_fr_energy">   4809.62983398 </i>
    <i name="e_wo_entrp">   4809.59394112 </i>
    <i name="e_0_energy">   4809.61786969 </i>
   </energy>
  </scstep>
  <scstep>
   <time name="diag">    6.71   12.65</time>
   <time name="diis">   14.26   20.68</time>
   <time name="orth">    2.00    4.00</time>
   <time name="total">   22.98   37.35</time>
   <energy>
    <i name="e_fr_energy">   1606.26552432 </i>
    <i name="e_wo_entrp">   1606.23587054 </i>
    <i name="e_0_energy">   1606.25563973 </i>
   </energy>
  </scstep>
  <scstep>
   <time name="diag">    6.50   13.01</time>
   <time name="diis">   14.02   27.15</time>
   <time name="orth">    2.08    4.18</time>
   <time name="total">   22.61   44.34</time>
   <energy>
    <i name="e_fr_energy">    561.85645620 </i>
    <i name="e_wo_entrp">    561.53580683 </i>
    <i name="e_0_energy">    561.74957307 </i>
   </energy>
  </scstep>
  <scstep>
   <time name="diag">    7.15   13.71</time>
   <time name="diis">   15.41   30.83</time>
   <time name="orth">    2.00    3.56</time>
   <time name="total">   24.57   48.11</time>
   <energy>
    <i name="e_fr_energy">    138.23523273 </i>
    <i name="e_wo_entrp">    138.24172353 </i>
    <i name="e_0_energy">    138.23739633 </i>
   </energy>
  </scstep>
  <scstep>
   <time name="diag">    6.65   13.31</time>
   <time name="diis">   14.09   27.79</time>
   <time name="orth">    2.01    4.03</time>
   <time name="total">   22.76   45.15</time>
   <energy>
    <i name="e_fr_energy">   -113.38214526 </i>
    <i name="e_wo_entrp">   -113.45364269 </i>
    <i name="e_0_energy">   -113.40597774 </i>
   </energy>
  </scstep>
  <scstep>
   <time name="diag">    6.80   12.45</time>
   <time name="diis">   13.71   27.10</time>
   <time name="orth">    2.00    3.98</time>
   <time name="total">   22.51   43.55</time>
   <energy>
    <i name="e_fr_energy">   -231.00022428 </i>
    <i name="e_wo_entrp">   -231.06079586 </i>
    <i name="e_0_energy">   -231.02041481 </i>
   </energy>
  </scstep>
  <scstep>
   <time name="diag">    6.45   12.90</time>
   <time name="diis">   12.84   24.98</time>
   <time name="orth">    1.95    3.80</time>
   <time name="total">   21.25   41.69</time>
   <energy>
    <i name="e_fr_energy">   -290.08516293 </i>
    <i name="e_wo_entrp">   -290.12115913 </i>
    <i name="e_0_energy">   -290.09716166 </i>
   </energy>
  </scstep>
  <scstep>
   <time name="diag">    6.54   12.63</time>
   <time name="diis">   13.95   20.71</time>
   <time name="orth">    2.00    2.00</time>
   <time name="total">   22.50   35.35</time>
   <energy>
    <i name="e_fr_energy">   -313.79576783 </i>
    <i name="e_wo_entrp">   -313.81756630 </i>
    <i name="e_0_energy">   -313.80303398 </i>
   </energy>
  </scstep>
  <scstep>
   <time name="diag">    6.62    6.62</time>
   <time name="diis">   39.60   61.88</time>
   <time name="orth">    2.00    3.88</time>
   <time name="total">   48.24   72.40</time>
   <energy>
    <i name="e_fr_energy">   -337.32232344 </i>
    <i name="e_wo_entrp">   -337.29478867 </i>
    <i name="e_0_energy">   -337.31314518 </i>
   </energy>
  </scstep>
  <scstep>
   <time name="diag">    6.59    9.03</time>
   <time name="diis">   34.72   66.14</time>
   <time name="orth">    1.94    3.82</time>
   <time name="total">   43.26   78.99</time>
   <energy>
    <i name="e_fr_energy">   -337.83374231 </i>
    <i name="e_wo_entrp">   -337.80445694 </i>
    <i name="e_0_energy">   -337.82398052 </i>
   </energy>
  </scstep>
  <scstep>
   <time name="diag">    6.41   11.71</time>
   <time name="diis">   35.27   68.52</time>
   <time name="orth">    1.93    3.86</time>
   <time name="total">   43.62   84.11</time>
   <energy>
    <i name="e_fr_energy">   -338.22479352 </i>
    <i name="e_wo_entrp">   -338.18907879 </i>
    <i name="e_0_energy">   -338.21288861 </i>
   </energy>
  </scstep>
  <scstep>
   <time name="diag">    6.19   11.64</time>
   <time name="diis">   30.09   46.44</time>
   <time name="orth">    2.09    3.62</time>
   <time name="total">   40.46   63.78</time>
   <energy>
    <i name="e_fr_energy">   -338.39551365 </i>
    <i name="e_wo_entrp">   -338.35859400 </i>
    <i name="e_0_energy">   -338.38320710 </i>
   </energy>
  </scstep>
  <scstep>
   <time name="diag">    7.04   13.43</time>
   <time name="diis">   29.68   55.28</time>
   <time name="orth">    2.10    4.20</time>
   <time name="total">   41.44   77.63</time>
   <energy>
    <i name="e_fr_energy">   -317.33658399 </i>
    <i name="e_wo_entrp">   -317.26181138 </i>
    <i name="e_0_energy">   -317.31165979 </i>
   </energy>
  </scstep>
  <scstep>
   <time name="diag">    7.12   13.95</time>
   <time name="diis">   31.63   61.21</time>
   <time name="orth">    2.03    4.06</time>
   <time name="total">   43.30   84.25</time>
   <energy>
    <i name="e_fr_energy">   -392.97340986 </i>
    <i name="e_wo_entrp">   -393.07442978 </i>
    <i name="e_0_energy">   -393.00708316 </i>
   </energy>
  </scstep>
  <scstep>
   <time name="diag">    6.84   13.67</time>
   <time name="diis">   28.99   57.69</time>
   <time name="orth">    2.06    4.11</time>
   <time name="total">   40.36   80.29</time>
   <energy>
    <i name="e_fr_energy">   -336.93577965 </i>
    <i name="e_wo_entrp">   -336.99566266 </i>
    <i name="e_0_energy">   -336.95574066 </i>
   </energy>
  </scstep>
  <scstep>
   <time name="diag">    6.64   11.94</time>
   <time name="diis">   24.52   47.93</time>
   <time name="orth">    1.88    3.77</time>
   <time name="total">   35.45   68.45</time>
   <energy>
    <i name="e_fr_energy">   -296.38904574 </i>
    <i name="e_wo_entrp">   -296.29375076 </i>
    <i name="e_0_energy">   -296.35728075 </i>
   </energy>
  </scstep>
  <scstep>
   <time name="diag">    6.40   12.35</time>
   <time name="diis">   25.24   39.86</time>
   <time name="orth">    1.94    2.73</time>
   <time name="total">   35.99   59.77</time>
   <energy>
    <i name="e_fr_energy">   -374.25128178 </i>
    <i name="e_wo_entrp">   -374.04602704 </i>
    <i name="e_0_energy">   -374.18286353 </i>
   </energy>
  </scstep>
  <scstep>
   <time name="diag">    6.59   13.19</time>
   <time name="diis">   25.45   46.55</time>
   <time name="orth">    2.03    4.05</time>
   <time name="total">   36.58   68.81</time>
   <energy>
    <i name="e_fr_energy">   -405.67300408 </i>
    <i name="e_wo_entrp">   -405.63542047 </i>
    <i name="e_0_energy">   -405.66047621 </i>
   </energy>
  </scstep>
  <scstep>
   <time name="diag">    6.74   13.43</time>
   <time name="diis">   27.16   46.54</time>
   <time name="orth">    1.96    1.96</time>
   <time name="total">   38.28   64.77</time>
   <energy>
    <i name="e_fr_energy">   -350.20744800 </i>
    <i name="e_wo_entrp">   -350.21696196 </i>
    <i name="e_0_energy">   -350.21061932 </i>
   </energy>
  </scstep>
  <scstep>
   <time name="diag">    6.58   11.67</time>
   <time name="diis">   27.79   52.88</time>
   <time name="orth">    2.01    4.03</time>
   <time name="total">   38.86   73.13</time>
   <energy>
    <i name="e_fr_energy">   -333.50301062 </i>
    <i name="e_wo_entrp">   -333.49905383 </i>
    <i name="e_0_energy">   -333.50169169 </i>
   </energy>
  </scstep>
  <scstep>
   <time name="diag">    6.53   12.93</time>
   <time name="diis">   22.64   40.97</time>
   <time name="orth">    1.90    2.22</time>
   <time name="total">   33.45   58.91</time>
   <energy>
    <i name="e_fr_energy">   -326.46922240 </i>
    <i name="e_wo_entrp">   -326.42803106 </i>
    <i name="e_0_energy">   -326.45549195 </i>
   </energy>
  </scstep>
  <scstep>
   <time name="diag">    6.07    6.59</time>
   <time name="diis">   24.22   30.04</time>
   <time name="orth">    1.91    3.83</time>
   <time name="total">   34.56   44.56</time>
   <energy>
    <i name="e_fr_energy">   -305.98268614 </i>
    <i name="e_wo_entrp">   -305.98878540 </i>
    <i name="e_0_energy">   -305.98471923 </i>
   </energy>
  </scstep>
  <scstep>
   <time name="diag">    6.83   13.53</time>
   <time name="diis">   29.14   52.80</time>
   <time name="orth">    2.17    4.35</time>
   <time name="total">   40.67   75.73</time>
   <energy>
    <i name="e_fr_energy">   -293.97020812 </i>
    <i name="e_wo_entrp">   -293.97386565 </i>
    <i name="e_0_energy">   -293.97142730 </i>
   </energy>
  </scstep>
  <scstep>
   <time name="diag">    7.41   13.59</time>
   <time name="diis">   34.03   57.01</time>
   <time name="orth">    2.03    2.03</time>
   <time name="total">   46.02   75.65</time>
   <energy>
    <i name="e_fr_energy">   -301.43383884 </i>
    <i name="e_wo_entrp">   -301.45638409 </i>
    <i name="e_0_energy">   -301.44135392 </i>
   </energy>
  </scstep>
  <scstep>
   <time name="diag">    7.00   11.90</time>
   <time name="diis">   26.74   45.54</time>
   <time name="orth">    2.00    4.00</time>
   <time name="total">   38.25   66.05</time>
   <energy>
    <i name="e_fr_energy">   -289.35531293 </i>
    <i name="e_wo_entrp">   -289.32119887 </i>
    <i name="e_0_energy">   -289.34394158 </i>
   </energy>
  </scstep>
  <scstep>
   <time name="diag">    6.76   12.98</time>
   <time name="diis">   26.64   52.09</time>
   <time name="orth">    1.94    3.43</time>
   <time name="total">   37.78   73.32</time>
   <energy>
    <i name="e_fr_energy">   -284.39777925 </i>
    <i name="e_wo_entrp">   -284.31802873 </i>
    <i name="e_0_energy">   -284.37119575 </i>
   </energy>
  </scstep>
  <scstep>
   <time name="diag">    6.21   12.02</time>
   <time name="diis">   26.19   50.31</time>
   <time name="orth">    1.97    3.94</time>
   <time name="total">   36.78   71.09</time>
   <energy>
    <i name="e_fr_energy">   -283.06288846 </i>
    <i name="e_wo_entrp">   -283.06175147 </i>
    <i name="e_0_energy">   -283.06250946 </i>
   </energy>
  </scstep>
  <scstep>
   <time name="diag">    6.54   12.52</time>
   <time name="diis">   26.89   52.09</time>
   <time name="orth">    2.01    3.88</time>
   <time name="total">   37.92   73.40</time>
   <energy>
    <i name="e_fr_energy">   -281.97696877 </i>
    <i name="e_wo_entrp">   -281.81200890 </i>
    <i name="e_0_energy">   -281.92198215 </i>
   </energy>
  </scstep>
  <scstep>
   <time name="diag">    6.83   13.62</time>
   <time name="diis">   30.11   52.55</time>
   <time name="orth">    2.01    4.01</time>
   <time name="total">   41.43   75.02</time>
   <energy>
    <i name="e_fr_energy">   -280.39501484 </i>
    <i name="e_wo_entrp">   -280.41296384 </i>
    <i name="e_0_energy">   -280.40099784 </i>
   </energy>
  </scstep>
  <scstep>
   <time name="diag">    6.87   13.65</time>
   <time name="diis">   26.42   47.41</time>
   <time name="orth">    1.94    3.91</time>
   <time name="total">   37.65   69.81</time>
   <energy>
    <i name="e_fr_energy">   -279.25584308 </i>
    <i name="e_wo_entrp">   -279.25898035 </i>
    <i name="e_0_energy">   -279.25688884 </i>
   </energy>
  </scstep>
  <scstep>
   <time name="diag">    6.34    8.67</time>
   <time name="diis">   23.62   34.20</time>
   <time name="orth">    1.93    3.86</time>
   <time name="total">   34.26   51.37</time>
   <energy>
    <i name="e_fr_energy">   -278.12722365 </i>
    <i name="e_wo_entrp">   -278.08542981 </i>
    <i name="e_0_energy">   -278.11329237 </i>
   </energy>
  </scstep>
  <scstep>
   <time name="diag">    6.31   12.42</time>
   <time name="diis">   22.35   42.96</time>
   <time name="orth">    1.89    3.53</time>
   <time name="total">   32.94   63.63</time>
   <energy>
    <i name="e_fr_energy">   -277.56937720 </i>
    <i name="e_wo_entrp">   -277.54927103 </i>
    <i name="e_0_energy">   -277.56267514 </i>
   </energy>
  </scstep>
  <scstep>
   <time name="diag">    6.72   13.32</time>
   <time name="diis">   28.03   55.25</time>
   <time name="orth">    2.00    3.99</time>
   <time name="total">   39.17   77.41</time>
   <energy>
    <i name="e_fr_energy">   -277.75508265 </i>
    <i name="e_wo_entrp">   -277.71783413 </i>
    <i name="e_0_energy">   -277.74266648 </i>
   </energy>
  </scstep>
  <scstep>
   <time name="diag">    6.55   10.08</time>
   <time name="diis">   28.33   54.25</time>
   <time name="orth">    2.10    4.20</time>
   <time name="total">   39.54   73.49</time>
   <energy>
    <i name="e_fr_energy">   -277.78587839 </i>
    <i name="e_wo_entrp">   -277.77125964 </i>
    <i name="e_0_energy">   -277.78100547 </i>
   </energy>
  </scstep>
  <scstep>
   <time name="diag">    7.22   14.45</time>
   <time name="diis">   30.21   60.06</time>
   <time name="orth">    2.04    4.08</time>
   <time name="total">   42.05   83.74</time>
   <energy>
    <i name="e_fr_energy">   -278.04538274 </i>
    <i name="e_wo_entrp">   -278.00876576 </i>
    <i name="e_0_energy">   -278.03317708 </i>
   </energy>
  </scstep>
  <scstep>
   <time name="diag">    6.96   13.92</time>
   <time name="diis">   24.73   40.73</time>
   <time name="orth">    1.93    1.93</time>
   <time name="total">   36.05   59.44</time>
   <energy>
    <i name="e_fr_energy">   -277.86152524 </i>
    <i name="e_wo_entrp">   -277.85318466 </i>
    <i name="e_0_energy">   -277.85874505 </i>
   </energy>
  </scstep>
  <scstep>
   <time name="diag">    6.27    6.28</time>
   <time name="diis">   25.74   34.88</time>
   <time name="orth">    1.98    3.96</time>
   <time name="total">   36.43   49.44</time>
   <energy>
    <i name="e_fr_energy">   -277.94523176 </i>
    <i name="e_wo_entrp">   -277.93491248 </i>
    <i name="e_0_energy">   -277.94179200 </i>
   </energy>
  </scstep>
  <scstep>
   <time name="diag">    6.86   13.08</time>
   <time name="diis">   27.15   53.46</time>
   <time name="orth">    1.99    3.99</time>
   <time name="total">   38.47   75.45</time>
   <energy>
    <i name="e_fr_energy">   -277.92575786 </i>
    <i name="e_wo_entrp">   -277.90629159 </i>
    <i name="e_0_energy">   -277.91926910 </i>
   </energy>
  </scstep>
  <scstep>
   <time name="diag">    6.67   13.35</time>
   <time name="diis">   30.84   61.17</time>
   <time name="orth">    2.06    4.11</time>
   <time name="total">   42.12   83.74</time>
   <energy>
    <i name="e_fr_energy">   -277.76983677 </i>
    <i name="e_wo_entrp">   -277.76786846 </i>
    <i name="e_0_energy">   -277.76918067 </i>
   </energy>
  </scstep>
  <scstep>
   <time name="diag">    6.72   10.67</time>
   <time name="diis">   29.58   29.65</time>
   <time name="orth">    1.96    2.63</time>
   <time name="total">   40.74   47.41</time>
   <energy>
    <i name="e_fr_energy">   -277.79127304 </i>
    <i name="e_wo_entrp">   -277.76762442 </i>
    <i name="e_0_energy">   -277.78339017 </i>
   </energy>
  </scstep>
  <scstep>
   <time name="diag">    6.25   12.01</time>
   <time name="diis">   26.01   50.42</time>
   <time name="orth">    1.97    3.95</time>
   <time name="total">   36.69   71.29</time>
   <energy>
    <i name="e_fr_energy">   -277.70267023 </i>
    <i name="e_wo_entrp">   -277.67176101 </i>
    <i name="e_0_energy">   -277.69236715 </i>
   </energy>
  </scstep>
  <scstep>
   <time name="diag">    6.56   12.66</time>
   <time name="diis">   28.57   49.80</time>
   <time name="orth">    1.98    1.98</time>
   <time name="total">   39.54   67.21</time>
   <energy>
    <i name="e_fr_energy">   -277.71344941 </i>
    <i name="e_wo_entrp">   -277.68204213 </i>
    <i name="e_0_energy">   -277.70298032 </i>
   </energy>
  </scstep>
  <scstep>
   <time name="diag">    6.64    6.65</time>
   <time name="diis">   26.83   35.30</time>
   <time name="orth">    1.96    3.41</time>
   <time name="total">   37.88   49.55</time>
   <energy>
    <i name="e_fr_energy">   -277.70778701 </i>
    <i name="e_wo_entrp">   -277.68384722 </i>
    <i name="e_0_energy">   -277.69980708 </i>
   </energy>
  </scstep>
  <scstep>
   <time name="diag">    7.03   13.13</time>
   <time name="diis">   27.61   50.76</time>
   <time name="orth">    1.98    3.95</time>
   <time name="total">   39.07   72.39</time>
   <energy>
    <i name="e_fr_energy">   -277.70393255 </i>
    <i name="e_wo_entrp">   -277.67874066 </i>
    <i name="e_0_energy">   -277.69553526 </i>
   </energy>
  </scstep>
  <scstep>
   <time name="diag">    6.69   12.99</time>
   <time name="diis">   25.02   49.38</time>
   <time name="orth">    2.03    4.06</time>
   <time name="total">   36.25   71.45</time>
   <energy>
    <i name="e_fr_energy">   -277.69520644 </i>
    <i name="e_wo_entrp">   -277.67833594 </i>
    <i name="e_0_energy">   -277.68958294 </i>
   </energy>
  </scstep>
  <scstep>
   <time name="diag">    6.71   13.43</time>
   <time name="diis">   24.12   39.79</time>
   <time name="orth">    2.15    4.30</time>
   <time name="total">   35.68   62.70</time>
   <energy>
    <i name="e_fr_energy">   -277.68475020 </i>
    <i name="e_wo_entrp">   -277.67340655 </i>
    <i name="e_0_energy">   -277.68096899 </i>
   </energy>
  </scstep>
  <scstep>
   <time name="diag">    7.04   13.96</time>
   <time name="diis">   16.22   31.68</time>
   <time name="orth">    1.98    3.53</time>
   <time name="total">   27.78   54.04</time>
   <energy>
    <i name="e_fr_energy">   -277.68270610 </i>
    <i name="e_wo_entrp">   -277.67096008 </i>
    <i name="e_0_energy">   -277.67879076 </i>
   </energy>
  </scstep>
  <scstep>
   <time name="diag">    6.55   11.06</time>
   <time name="diis">   15.67   28.21</time>
   <time name="orth">    1.97    3.81</time>
   <time name="total">   26.66   48.03</time>
   <energy>
    <i name="e_fr_energy">   -277.67965137 </i>
    <i name="e_wo_entrp">   -277.67076822 </i>
    <i name="e_0_energy">   -277.67669032 </i>
   </energy>
  </scstep>
  <scstep>
   <time name="diag">    6.61   13.04</time>
   <time name="diis">   14.89   20.26</time>
   <time name="orth">    1.95    1.95</time>
   <time name="total">   25.89   39.04</time>
   <energy>
    <i name="e_fr_energy">   -277.67736940 </i>
    <i name="e_wo_entrp">   -277.66959890 </i>
    <i name="e_0_energy">   -277.67477923 </i>
   </energy>
  </scstep>
  <scstep>
   <time name="diag">    6.48   12.44</time>
   <time name="diis">   22.70   35.24</time>
   <time name="orth">    1.92    1.92</time>
   <time name="total">   33.55   52.42</time>
   <energy>
    <i name="e_fr_energy">   -277.67482877 </i>
    <i name="e_wo_entrp">   -277.67213134 </i>
    <i name="e_0_energy">   -277.67392963 </i>
   </energy>
  </scstep>
  <scstep>
   <time name="diag">    6.18    6.18</time>
   <time name="diis">   17.66   19.68</time>
   <time name="orth">    1.94    1.94</time>
   <time name="total">   28.17   30.20</time>
   <energy>
    <i name="e_fr_energy">   -277.67250564 </i>
    <i name="e_wo_entrp">   -277.67265253 </i>
    <i name="e_0_energy">   -277.67255460 </i>
   </energy>
  </scstep>
  <scstep>
   <time name="diag">    6.46   11.47</time>
   <time name="diis">   13.58   26.20</time>
   <time name="orth">    1.96    3.65</time>
   <time name="total">   24.43   45.70</time>
   <energy>
    <i name="e_fr_energy">   -277.67202821 </i>
    <i name="e_wo_entrp">   -277.67282770 </i>
    <i name="e_0_energy">   -277.67229471 </i>
   </energy>
  </scstep>
  <scstep>
   <time name="diag">    6.39    8.73</time>
   <time name="diis">   12.74   12.75</time>
   <time name="orth">    1.96    1.96</time>
   <time name="total">   23.51   26.22</time>
   <energy>
    <i name="e_fr_energy">   -277.67189602 </i>
    <i name="e_wo_entrp">   -277.67302666 </i>
    <i name="e_0_energy">   -277.67227290 </i>
   </energy>
  </scstep>
  <scstep>
   <time name="diag">    6.50    6.50</time>
   <time name="diis">   13.85   20.42</time>
   <time name="orth">    1.96    3.68</time>
   <time name="total">   22.67   30.97</time>
   <energy>
    <i name="alphaZ">   1136.56246079 </i>
    <i name="ewald"> -19658.67734157 </i>
    <i name="hartreedc"> -12368.38257155 </i>
    <i name="XCdc">   1356.58612875 </i>
    <i name="pawpsdc">  32610.16412899 </i>
    <i name="pawaedc"> -32914.59298780 </i>
    <i name="eentropy">      0.00222229 </i>
    <i name="bandstr">  -2779.68170012 </i>
    <i name="atom">  32340.34786160 </i>
    <i name="e_fr_energy">   -277.67179863 </i>
    <i name="e_wo_entrp">   -277.67402091 </i>
    <i name="e_0_energy">   -277.67253939 </i>
   </energy>
  </scstep>
  <structure>
   <crystal>
    <varray name="basis" >
     <v>       9.40119100       0.00000000      -0.08412900 </v>
     <v>       0.00000000       5.35946700       0.00000000 </v>
     <v>       0.00000000       0.00000000      14.95565100 </v>
    </varray>
    <i name="volume">    753.54605297 </i>
    <varray name="rec_basis" >
     <v>       0.10636950       0.00000000       0.00000000 </v>
     <v>       0.00000000       0.18658572       0.00000000 </v>
     <v>       0.00059835       0.00000000       0.06686436 </v>
    </varray>
   </crystal>
   <varray name="positions" >
    <v>       0.16411200       0.48397600       0.17995900 </v>
    <v>       0.16411200       0.51602400       0.67425600 </v>
    <v>       0.67084800       0.98397600       0.17995900 </v>
    <v>       0.66411200       0.01602400       0.67995900 </v>
    <v>       0.17533200       0.47285200       0.97303200 </v>
    <v>       0.17533200       0.52714800       0.47303200 </v>
    <v>       0.67533200       0.97285200       0.97303200 </v>
    <v>       0.67533200       0.02714800       0.47303200 </v>
    <v>       0.33162900       0.02941400       0.82240100 </v>
    <v>       0.33162900       0.97058600       0.32240100 </v>
    <v>       0.83162900       0.52354900       0.82240100 </v>
    <v>       0.83285600       0.47058600       0.32240100 </v>
    <v>       0.33361900       0.00432000       0.50720300 </v>
    <v>       0.33361900       0.99568000       0.00867400 </v>
    <v>       0.83361900       0.50432000       0.51711500 </v>
    <v>       0.83361900       0.49568000       0.00815800 </v>
    <v>       0.30926400       0.26740800       0.92544800 </v>
    <v>       0.30926400       0.73259200       0.42544800 </v>
    <v>       0.80926400       0.76740800       0.92544800 </v>
    <v>       0.80926400       0.23259200       0.41808200 </v>
    <v>       0.00386100       0.36884200       0.24394900 </v>
    <v>       0.00386100       0.63115800       0.74394900 </v>
    <v>       0.50386100       0.86884200       0.24394900 </v>
    <v>       0.50386100       0.13115800       0.74394900 </v>
    <v>       0.02591400       0.39537700       0.57915900 </v>
    <v>       0.02591400       0.59525200       0.07767900 </v>
    <v>       0.52591400       0.89537700       0.58467200 </v>
    <v>       0.52591400       0.10462300       0.07915900 </v>
    <v>       0.17611800       0.21417000       0.08350500 </v>
    <v>       0.17611800       0.78583000       0.58350500 </v>
    <v>       0.67611800       0.71417000       0.08855200 </v>
    <v>       0.67611800       0.28583000       0.58350500 </v>
    <v>       0.18147400       0.20640400       0.73945400 </v>
    <v>       0.18147400       0.79655500       0.23945400 </v>
    <v>       0.68147400       0.70344500       0.73945400 </v>
    <v>       0.68930100       0.29655500       0.23945400 </v>
    <v>       0.18900300       0.20186000       0.42366300 </v>
    <v>       0.18900300       0.79814000       0.92366300 </v>
    <v>       0.68900300       0.70186000       0.42366300 </v>
    <v>       0.68900300       0.29814000       0.91814500 </v>
    <v>       0.30046700       0.34686800       0.57827500 </v>
    <v>       0.29347700       0.65313200       0.07827500 </v>
    <v>       0.79347700       0.84686800       0.57827500 </v>
    <v>       0.79347700       0.15313200       0.07827500 </v>
    <v>       0.30310600       0.30561100       0.24801900 </v>
    <v>       0.29673400       0.69438900       0.74801900 </v>
    <v>       0.80310600       0.80561100       0.24801900 </v>
    <v>       0.80310600       0.19438900       0.74801900 </v>
    <v>       0.49071400       0.13464800       0.42295500 </v>
    <v>       0.49071400       0.86535200       0.92295500 </v>
    <v>       0.99071400       0.63464800       0.42295500 </v>
    <v>       0.99071400       0.36535200       0.93269300 </v>
   </varray>
  </structure>
  <varray name="forces" >
   <v>       0.08761686       0.16234373      -0.49996130 </v>
   <v>      -0.02887353      -0.23033574       0.51589829 </v>
   <v>      -0.70052492       0.18933746      -0.55167620 </v>
   <v>      -0.10336183      -0.22999268      -0.39121356 </v>
   <v>       0.95141207      -0.64941713       1.87255594 </v>
   <v>       0.68521096       0.74285340       1.28284305 </v>
   <v>       0.57935636      -0.57933115       1.34593412 </v>
   <v>       0.80447388       0.74019586       0.80137006 </v>
   <v>      -0.30711824       1.01231910      -0.27383766 </v>
   <v>      -0.15317937      -1.02396525      -0.33115229 </v>
   <v>      -0.44442519       1.02734259      -0.26504765 </v>
   <v>      -0.31559574      -1.29444769       0.02119084 </v>
   <v>       0.06297249      -0.97394162      -0.49551299 </v>
   <v>       0.04861857       1.01088064      -0.56997557 </v>
   <v>      -0.05206450      -0.93197111      -1.39679943 </v>
   <v>      -0.00117432       1.21415566      -0.38036668 </v>
   <v>      -0.39584539      -1.76727598      -0.05163602 </v>
   <v>      -0.37033325       1.74848086      -0.03740249 </v>
   <v>      -0.41459032      -1.77953443       0.10584396 </v>
   <v>      -0.56649346       1.73139747       0.90957094 </v>
   <v>      -0.25321557       0.25064155       0.34886077 </v>
   <v>      -0.19901879      -0.35673042       0.21374018 </v>
   <v>      -0.08714469       0.38910972       0.31759878 </v>
   <v>      -0.31509880      -0.19925165       0.45555882 </v>
   <v>      -0.41571947       0.10863445      -0.40669161 </v>
   <v>      -0.49472976       0.04320858      -0.23969288 </v>
   <v>      -0.30874063       0.21013904      -0.65962640 </v>
   <v>      -0.41331092      -0.21526007      -0.56691854 </v>
   <v>       0.33480690      -0.19733402      -0.57345598 </v>
   <v>       0.13141354       0.15023661      -0.66525015 </v>
   <v>       0.25048649      -0.09324919      -0.73352060 </v>
   <v>       0.40836059       0.26050700      -0.56707010 </v>
   <v>       0.57942878       0.16562998       0.43428089 </v>
   <v>       0.61672628      -0.11873133       0.60866567 </v>
   <v>       0.62442545       0.09089089       0.57594167 </v>
   <v>       0.49700890      -0.03654527       0.56468113 </v>
   <v>       0.46984620      -0.25976709       0.03582301 </v>
   <v>       0.45833756       0.29988002       0.04002208 </v>
   <v>       0.44197195      -0.17165187       0.17410645 </v>
   <v>       0.56534479       0.12381274       0.34856253 </v>
   <v>      -0.25672352       0.15151876      -0.61026286 </v>
   <v>       0.05695819      -0.02891202      -0.56811522 </v>
   <v>       0.11130038       0.00168221      -0.48228615 </v>
   <v>       0.04606734      -0.08483865      -0.65326957 </v>
   <v>      -0.28189533      -0.27702732       0.29963414 </v>
   <v>      -0.07466677       0.25505155       0.17638384 </v>
   <v>       0.08934768      -0.37356064       0.47444716 </v>
   <v>      -0.16979699       0.28230469       0.25680673 </v>
   <v>      -0.40319040      -0.43540872       0.16097841 </v>
   <v>      -0.43883816       0.36539448       0.07985157 </v>
   <v>      -0.41351657      -0.43651480       0.21304193 </v>
   <v>      -0.52230579       0.01704687      -0.66345107 </v>
  </varray>
  <varray name="stress" >
   <v>    -204.09292517      -1.27138089       2.57655231 </v>
   <v>      -1.27137960    -217.46943892       2.57287874 </v>
   <v>       2.57655180       2.57287894    -229.77893476 </v>
  </varray>
  <energy>
   <i name="e_fr_energy">   -277.67179863 </i>
   <i name="e_wo_entrp">   -277.67253939 </i>
   <i name="e_0_energy">      0.00222229 </i>
  </energy>
  <time name="totalsc"> 1922.22 3384.30</time>
  <eigenvalues>
   <array>
    <dimension dim="1">band</dimension>
    <dimension dim="2">kpoint</dimension>
    <dimension dim="3">spin</dimension>
    <field>eigene</field>
    <field>occ</field>
    <set>
     <set comment="spin 1">
      <set comment="kpoint 1">
       <r>  -24.2211    1.0000 </r>
       <r>  -24.0392    1.0000 </r>
       <r>  -23.9721    1.0000 </r>
       <r>  -23.9128    1.0000 </r>
       <r>  -23.8391    1.0000 </r>
       <r>  -23.8096    1.0000 </r>
       <r>  -23.7483    1.0000 </r>
       <r>  -23.7140    1.0000 </r>
       <r>  -23.6561    1.0000 </r>
       <r>  -23.5735    1.0000 </r>
       <r>  -23.5160    1.0000 </r>
       <r>  -23.4812    1.0000 </r>
       <r>  -23.3475    1.0000 </r>
       <r>  -23.3172    1.0000 </r>
       <r>  -23.1624    1.0000 </r>
       <r>  -23.1418    1.0000 </r>
       <r>  -23.1399    1.0000 </r>
       <r>  -23.1009    1.0000 </r>
       <r>  -23.0880    1.0000 </r>
       <r>  -23.0538    1.0000 </r>
       <r>  -23.0258    1.0000 </r>
       <r>  -22.9648    1.0000 </r>
       <r>  -22.9551    1.0000 </r>
       <r>  -22.9179    1.0000 </r>
       <r>  -22.8967    1.0000 </r>
       <r>  -22.8696    1.0000 </r>
       <r>  -22.8489    1.0000 </r>
       <r>  -22.8408    1.0000 </r>
       <r>  -22.7772    1.0000 </r>
       <r>  -22.7314    1.0000 </r>
       <r>  -22.7284    1.0000 </r>
       <r>  -22.6027    1.0000 </r>
       <r>  -18.9868    1.0000 </r>
       <r>  -18.9350    1.0000 </r>
       <r>  -18.9259    1.0000 </r>
       <r>  -18.6151    1.0000 </r>
       <r>   -7.1703    1.0000 </r>
       <r>   -7.1083    1.0000 </r>
       <r>   -7.0074    1.0000 </r>
       <r>   -6.9244    1.0000 </r>
       <r>   -6.8515    1.0000 </r>
       <r>   -6.7733    1.0000 </r>
       <r>   -6.7485    1.0000 </r>
       <r>   -6.7111    1.0000 </r>
       <r>   -6.5786    1.0000 </r>
       <r>   -6.5636    1.0000 </r>
       <r>   -6.4463    1.0000 </r>
       <r>   -6.3826    1.0000 </r>
       <r>   -6.3277    1.0000 </r>
       <r>   -6.2739    1.0000 </r>
       <r>   -6.1941    1.0000 </r>
       <r>   -6.1611    1.0000 </r>
       <r>   -6.1465    1.0000 </r>
       <r>   -6.1225    1.0000 </r>
       <r>   -6.1081    1.0000 </r>
       <r>   -6.0878    1.0000 </r>
       <r>   -6.0718    1.0000 </r>
       <r>   -6.0468    1.0000 </r>
       <r>   -6.0253    1.0000 </r>
       <r>   -5.9817    1.0000 </r>
       <r>   -5.9772    1.0000 </r>
       <r>   -5.9378    1.0000 </r>
       <r>   -5.9325    1.0000 </r>
       <r>   -5.8827    1.0000 </r>
       <r>   -5.8793    1.0000 </r>
       <r>   -5.8253    1.0000 </r>
       <r>   -5.8091    1.0000 </r>
       <r>   -5.8001    1.0000 </r>
       <r>   -5.7818    1.0000 </r>
       <r>   -5.7466    1.0000 </r>
       <r>   -5.7367    1.0000 </r>
       <r>   -5.7143    1.0000 </r>
       <r>   -5.6817    1.0000 </r>
       <r>   -5.6772    1.0000 </r>
       <r>   -5.6358    1.0000 </r>
       <r>   -5.6074    1.0000 </r>
       <r>   -5.5589    1.0000 </r>
       <r>   -5.5186    1.0000 </r>
       <r>   -5.4907    1.0000 </r>
       <r>   -5.4673    1.0000 </r>
       <r>   -5.4535    1.0000 </r>
       <r>   -5.3992    1.0000 </r>
       <r>   -5.3280    1.0000 </r>
       <r>   -5.2190    1.0000 </r>
       <r>   -5.2078    1.0000 </r>
       <r>   -5.1685    1.0000 </r>
       <r>   -5.1544    1.0000 </r>
       <r>   -5.1430    1.0000 </r>
       <r>   -5.1134    1.0000 </r>
       <r>   -5.0886    1.0000 </r>
       <r>   -5.0752    1.0000 </r>
       <r>   -5.0512    1.0000 </r>
       <r>   -4.9454    1.0000 </r>
       <r>   -4.9112    1.0000 </r>
       <r>   -4.9045    1.0000 </r>
       <r>   -4.8465    1.0000 </r>
       <r>   -4.8071    1.0000 </r>
       <r>   -4.7834    1.0000 </r>
       <r>   -4.7637    1.0000 </r>
       <r>   -4.7337    1.0000 </r>
       <r>   -4.6944    1.0000 </r>
       <r>   -4.6623    1.0000 </r>
       <r>   -4.6088    1.0000 </r>
       <r>   -4.5699    1.0000 </r>
       <r>   -4.5235    1.0000 </r>
       <r>   -4.5092    1.0000 </r>
       <r>   -4.4651    1.0000 </r>
       <r>   -4.4303    1.0000 </r>
       <r>   -4.3974    1.0000 </r>
       <r>   -4.3676    1.0000 </r>
       <r>   -4.3223    1.0000 </r>
       <r>   -4.3103    1.0000 </r>
       <r>   -4.2789    1.0000 </r>
       <r>   -4.2724    1.0000 </r>
       <r>   -4.2075    1.0000 </r>
       <r>   -4.1684    1.0000 </r>
       <r>   -4.1517    1.0000 </r>
       <r>   -4.0927    1.0000 </r>
       <r>   -4.0666    1.0000 </r>
       <r>   -4.0621    1.0000 </r>
       <r>   -4.0444    1.0000 </r>
       <r>   -4.0193    1.0000 </r>
       <r>   -3.9763    1.0000 </r>
       <r>   -3.9458    1.0000 </r>
       <r>   -3.9138    1.0000 </r>
       <r>   -3.9094    1.0000 </r>
       <r>   -3.8714    1.0000 </r>
       <r>   -3.8373    1.0000 </r>
       <r>   -3.7913    1.0000 </r>
       <r>   -3.7788    1.0000 </r>
       <r>   -3.7671    1.0000 </r>
       <r>   -3.7402    1.0000 </r>
       <r>   -3.7244    1.0000 </r>
       <r>   -3.7018    1.0000 </r>
       <r>   -3.6502    1.0000 </r>
       <r>   -3.6062    1.0000 </r>
       <r>   -3.5895    1.0000 </r>
       <r>   -3.5497    1.0000 </r>
       <r>   -3.5042    1.0000 </r>
       <r>   -3.4824    1.0000 </r>
       <r>   -3.4379    1.0000 </r>
       <r>   -3.4019    1.0000 </r>
       <r>   -3.3469    1.0000 </r>
       <r>   -3.2906    1.0000 </r>
       <r>   -0.9859    1.0000 </r>
       <r>   -0.9606    1.0000 </r>
       <r>   -0.9081    1.0000 </r>
       <r>   -0.8640    1.0000 </r>
       <r>   -0.8129    1.0000 </r>
       <r>   -0.7741    1.0001 </r>
       <r>   -0.7426    1.0002 </r>
       <r>   -0.7350    1.0002 </r>
       <r>   -0.7136    1.0003 </r>
       <r>   -0.6913    1.0006 </r>
       <r>   -0.6645    1.0011 </r>
       <r>   -0.6559    1.0013 </r>
       <r>   -0.6485    1.0016 </r>
       <r>   -0.6416    1.0018 </r>
       <r>   -0.6149    1.0031 </r>
       <r>   -0.6072    1.0036 </r>
       <r>   -0.5723    1.0068 </r>
       <r>   -0.5434    1.0107 </r>
       <r>   -0.5407    1.0111 </r>
       <r>   -0.5173    1.0154 </r>
       <r>   -0.4878    1.0218 </r>
       <r>   -0.4832    1.0228 </r>
       <r>   -0.4768    1.0243 </r>
       <r>   -0.4689    1.0261 </r>
       <r>   -0.4573    1.0287 </r>
       <r>   -0.4535    1.0295 </r>
       <r>   -0.4461    1.0310 </r>
       <r>   -0.4281    1.0340 </r>
       <r>   -0.4159    1.0352 </r>
       <r>   -0.4088    1.0354 </r>
       <r>   -0.4008    1.0353 </r>
       <r>   -0.3927    1.0346 </r>
       <r>   -0.3564    1.0219 </r>
       <r>   -0.3382    1.0079 </r>
       <r>   -0.3198    0.9870 </r>
       <r>   -0.2841    0.9244 </r>
       <r>   -0.2733    0.8993 </r>
       <r>   -0.2527    0.8431 </r>
       <r>   -0.2408    0.8060 </r>
       <r>   -0.2383    0.7978 </r>
       <r>   -0.2272    0.7598 </r>
       <r>   -0.2112    0.7010 </r>
       <r>   -0.1865    0.6024 </r>
       <r>   -0.1753    0.5556 </r>
       <r>   -0.1524    0.4592 </r>
       <r>   -0.1136    0.3011 </r>
       <r>   -0.1095    0.2856 </r>
       <r>   -0.0648    0.1374 </r>
       <r>   -0.0503    0.0991 </r>
       <r>   -0.0107    0.0217 </r>
       <r>    0.0022    0.0047 </r>
       <r>    0.0137   -0.0076 </r>
       <r>    0.0489   -0.0300 </r>
       <r>    0.0780   -0.0354 </r>
       <r>    0.1191   -0.0315 </r>
       <r>    0.1289   -0.0296 </r>
       <r>    0.1884   -0.0163 </r>
       <r>    0.1944   -0.0151 </r>
       <r>    0.2087   -0.0124 </r>
       <r>    0.2773   -0.0040 </r>
       <r>    0.3483   -0.0009 </r>
       <r>    0.4051   -0.0002 </r>
       <r>    0.4451   -0.0001 </r>
       <r>    0.4815   -0.0000 </r>
       <r>    0.5292   -0.0000 </r>
       <r>    0.6533   -0.0000 </r>
       <r>    0.6598   -0.0000 </r>
       <r>    0.7004   -0.0000 </r>
       <r>    0.7504   -0.0000 </r>
       <r>    0.7732   -0.0000 </r>
       <r>    0.8318   -0.0000 </r>
       <r>    0.9112   -0.0000 </r>
       <r>    0.9781   -0.0000 </r>
       <r>    0.9956   -0.0000 </r>
       <r>    1.0605   -0.0000 </r>
       <r>    1.1255   -0.0000 </r>
       <r>    1.1792   -0.0000 </r>
       <r>    1.1915   -0.0000 </r>
       <r>    1.2602   -0.0000 </r>
       <r>    1.3034   -0.0000 </r>
       <r>    3.3364   -0.0000 </r>
      </set>
      <set comment="kpoint 2">
       <r>  -24.2195    1.0000 </r>
       <r>  -24.0322    1.0000 </r>
       <r>  -23.9777    1.0000 </r>
       <r>  -23.9302    1.0000 </r>
       <r>  -23.8306    1.0000 </r>
       <r>  -23.7914    1.0000 </r>
       <r>  -23.7526    1.0000 </r>
       <r>  -23.7244    1.0000 </r>
       <r>  -23.6513    1.0000 </r>
       <r>  -23.5761    1.0000 </r>
       <r>  -23.5068    1.0000 </r>
       <r>  -23.4919    1.0000 </r>
       <r>  -23.3481    1.0000 </r>
       <r>  -23.3170    1.0000 </r>
       <r>  -23.1619    1.0000 </r>
       <r>  -23.1389    1.0000 </r>
       <r>  -23.1365    1.0000 </r>
       <r>  -23.1035    1.0000 </r>
       <r>  -23.0877    1.0000 </r>
       <r>  -23.0594    1.0000 </r>
       <r>  -23.0218    1.0000 </r>
       <r>  -22.9709    1.0000 </r>
       <r>  -22.9534    1.0000 </r>
       <r>  -22.9176    1.0000 </r>
       <r>  -22.8990    1.0000 </r>
       <r>  -22.8673    1.0000 </r>
       <r>  -22.8488    1.0000 </r>
       <r>  -22.8347    1.0000 </r>
       <r>  -22.7765    1.0000 </r>
       <r>  -22.7334    1.0000 </r>
       <r>  -22.7308    1.0000 </r>
       <r>  -22.6030    1.0000 </r>
       <r>  -18.9868    1.0000 </r>
       <r>  -18.9337    1.0000 </r>
       <r>  -18.9271    1.0000 </r>
       <r>  -18.6151    1.0000 </r>
       <r>   -7.1551    1.0000 </r>
       <r>   -7.1000    1.0000 </r>
       <r>   -7.0534    1.0000 </r>
       <r>   -6.8944    1.0000 </r>
       <r>   -6.8739    1.0000 </r>
       <r>   -6.8399    1.0000 </r>
       <r>   -6.7459    1.0000 </r>
       <r>   -6.7138    1.0000 </r>
       <r>   -6.5312    1.0000 </r>
       <r>   -6.4995    1.0000 </r>
       <r>   -6.4391    1.0000 </r>
       <r>   -6.3845    1.0000 </r>
       <r>   -6.3279    1.0000 </r>
       <r>   -6.3023    1.0000 </r>
       <r>   -6.2338    1.0000 </r>
       <r>   -6.1559    1.0000 </r>
       <r>   -6.1352    1.0000 </r>
       <r>   -6.1226    1.0000 </r>
       <r>   -6.1075    1.0000 </r>
       <r>   -6.0894    1.0000 </r>
       <r>   -6.0616    1.0000 </r>
       <r>   -6.0537    1.0000 </r>
       <r>   -6.0039    1.0000 </r>
       <r>   -6.0007    1.0000 </r>
       <r>   -5.9855    1.0000 </r>
       <r>   -5.9635    1.0000 </r>
       <r>   -5.9166    1.0000 </r>
       <r>   -5.9078    1.0000 </r>
       <r>   -5.8689    1.0000 </r>
       <r>   -5.8218    1.0000 </r>
       <r>   -5.8145    1.0000 </r>
       <r>   -5.7849    1.0000 </r>
       <r>   -5.7601    1.0000 </r>
       <r>   -5.7392    1.0000 </r>
       <r>   -5.7265    1.0000 </r>
       <r>   -5.7211    1.0000 </r>
       <r>   -5.7147    1.0000 </r>
       <r>   -5.6639    1.0000 </r>
       <r>   -5.6422    1.0000 </r>
       <r>   -5.6152    1.0000 </r>
       <r>   -5.5372    1.0000 </r>
       <r>   -5.4867    1.0000 </r>
       <r>   -5.4737    1.0000 </r>
       <r>   -5.4512    1.0000 </r>
       <r>   -5.4267    1.0000 </r>
       <r>   -5.3812    1.0000 </r>
       <r>   -5.3527    1.0000 </r>
       <r>   -5.3080    1.0000 </r>
       <r>   -5.1948    1.0000 </r>
       <r>   -5.1733    1.0000 </r>
       <r>   -5.1586    1.0000 </r>
       <r>   -5.1227    1.0000 </r>
       <r>   -5.1162    1.0000 </r>
       <r>   -5.1092    1.0000 </r>
       <r>   -5.0584    1.0000 </r>
       <r>   -5.0273    1.0000 </r>
       <r>   -5.0057    1.0000 </r>
       <r>   -4.9887    1.0000 </r>
       <r>   -4.8970    1.0000 </r>
       <r>   -4.8738    1.0000 </r>
       <r>   -4.7913    1.0000 </r>
       <r>   -4.7628    1.0000 </r>
       <r>   -4.7484    1.0000 </r>
       <r>   -4.7261    1.0000 </r>
       <r>   -4.7056    1.0000 </r>
       <r>   -4.6513    1.0000 </r>
       <r>   -4.6109    1.0000 </r>
       <r>   -4.5784    1.0000 </r>
       <r>   -4.5099    1.0000 </r>
       <r>   -4.4730    1.0000 </r>
       <r>   -4.4301    1.0000 </r>
       <r>   -4.4101    1.0000 </r>
       <r>   -4.3986    1.0000 </r>
       <r>   -4.3753    1.0000 </r>
       <r>   -4.3290    1.0000 </r>
       <r>   -4.3205    1.0000 </r>
       <r>   -4.2977    1.0000 </r>
       <r>   -4.2678    1.0000 </r>
       <r>   -4.1530    1.0000 </r>
       <r>   -4.1110    1.0000 </r>
       <r>   -4.0909    1.0000 </r>
       <r>   -4.0771    1.0000 </r>
       <r>   -4.0201    1.0000 </r>
       <r>   -4.0140    1.0000 </r>
       <r>   -3.9973    1.0000 </r>
       <r>   -3.9899    1.0000 </r>
       <r>   -3.9811    1.0000 </r>
       <r>   -3.9677    1.0000 </r>
       <r>   -3.9388    1.0000 </r>
       <r>   -3.9288    1.0000 </r>
       <r>   -3.8954    1.0000 </r>
       <r>   -3.8817    1.0000 </r>
       <r>   -3.8212    1.0000 </r>
       <r>   -3.7997    1.0000 </r>
       <r>   -3.7706    1.0000 </r>
       <r>   -3.7511    1.0000 </r>
       <r>   -3.7332    1.0000 </r>
       <r>   -3.7074    1.0000 </r>
       <r>   -3.6793    1.0000 </r>
       <r>   -3.6640    1.0000 </r>
       <r>   -3.5528    1.0000 </r>
       <r>   -3.5422    1.0000 </r>
       <r>   -3.5105    1.0000 </r>
       <r>   -3.4869    1.0000 </r>
       <r>   -3.4451    1.0000 </r>
       <r>   -3.4231    1.0000 </r>
       <r>   -3.4047    1.0000 </r>
       <r>   -3.2993    1.0000 </r>
       <r>   -0.9753    1.0000 </r>
       <r>   -0.9714    1.0000 </r>
       <r>   -0.9252    1.0000 </r>
       <r>   -0.8326    1.0000 </r>
       <r>   -0.7937    1.0000 </r>
       <r>   -0.7706    1.0001 </r>
       <r>   -0.7391    1.0002 </r>
       <r>   -0.7297    1.0002 </r>
       <r>   -0.7158    1.0003 </r>
       <r>   -0.7002    1.0005 </r>
       <r>   -0.6754    1.0009 </r>
       <r>   -0.6625    1.0011 </r>
       <r>   -0.6499    1.0015 </r>
       <r>   -0.6393    1.0019 </r>
       <r>   -0.6091    1.0035 </r>
       <r>   -0.5894    1.0050 </r>
       <r>   -0.5611    1.0081 </r>
       <r>   -0.5532    1.0092 </r>
       <r>   -0.5468    1.0102 </r>
       <r>   -0.5304    1.0129 </r>
       <r>   -0.5165    1.0155 </r>
       <r>   -0.5059    1.0177 </r>
       <r>   -0.4973    1.0196 </r>
       <r>   -0.4786    1.0239 </r>
       <r>   -0.4760    1.0245 </r>
       <r>   -0.4628    1.0275 </r>
       <r>   -0.4493    1.0304 </r>
       <r>   -0.4338    1.0332 </r>
       <r>   -0.4260    1.0343 </r>
       <r>   -0.4165    1.0351 </r>
       <r>   -0.3882    1.0339 </r>
       <r>   -0.3788    1.0318 </r>
       <r>   -0.3274    0.9965 </r>
       <r>   -0.3061    0.9666 </r>
       <r>   -0.2741    0.9011 </r>
       <r>   -0.2728    0.8979 </r>
       <r>   -0.2594    0.8624 </r>
       <r>   -0.2462    0.8233 </r>
       <r>   -0.2416    0.8088 </r>
       <r>   -0.2340    0.7836 </r>
       <r>   -0.2004    0.6589 </r>
       <r>   -0.1960    0.6413 </r>
       <r>   -0.1873    0.6056 </r>
       <r>   -0.1845    0.5940 </r>
       <r>   -0.1393    0.4041 </r>
       <r>   -0.1223    0.3352 </r>
       <r>   -0.1159    0.3100 </r>
       <r>   -0.1138    0.3020 </r>
       <r>   -0.0625    0.1311 </r>
       <r>   -0.0443    0.0850 </r>
       <r>   -0.0208    0.0379 </r>
       <r>   -0.0037    0.0120 </r>
       <r>    0.0998   -0.0345 </r>
       <r>    0.1121   -0.0328 </r>
       <r>    0.1149   -0.0323 </r>
       <r>    0.1246   -0.0305 </r>
       <r>    0.1640   -0.0217 </r>
       <r>    0.1778   -0.0186 </r>
       <r>    0.2316   -0.0088 </r>
       <r>    0.2370   -0.0081 </r>
       <r>    0.3948   -0.0003 </r>
       <r>    0.4036   -0.0002 </r>
       <r>    0.4298   -0.0001 </r>
       <r>    0.4738   -0.0000 </r>
       <r>    0.5608   -0.0000 </r>
       <r>    0.5899   -0.0000 </r>
       <r>    0.6791   -0.0000 </r>
       <r>    0.6854   -0.0000 </r>
       <r>    0.7426   -0.0000 </r>
       <r>    0.7767   -0.0000 </r>
       <r>    0.8396   -0.0000 </r>
       <r>    0.8862   -0.0000 </r>
       <r>    0.9880   -0.0000 </r>
       <r>    1.0739   -0.0000 </r>
       <r>    1.0848   -0.0000 </r>
       <r>    1.1345   -0.0000 </r>
       <r>    1.1487   -0.0000 </r>
       <r>    1.1698   -0.0000 </r>
       <r>    1.2426   -0.0000 </r>
       <r>    1.2849   -0.0000 </r>
       <r>    3.9903   -0.0000 </r>
      </set>
      <set comment="kpoint 3">
       <r>  -24.2145    1.0000 </r>
       <r>  -24.0192    1.0000 </r>
       <r>  -23.9680    1.0000 </r>
       <r>  -23.9103    1.0000 </r>
       <r>  -23.8265    1.0000 </r>
       <r>  -23.7845    1.0000 </r>
       <r>  -23.7504    1.0000 </r>
       <r>  -23.7072    1.0000 </r>
       <r>  -23.6435    1.0000 </r>
       <r>  -23.5875    1.0000 </r>
       <r>  -23.4813    1.0000 </r>
       <r>  -23.4593    1.0000 </r>
       <r>  -23.3637    1.0000 </r>
       <r>  -23.3390    1.0000 </r>
       <r>  -23.2037    1.0000 </r>
       <r>  -23.1499    1.0000 </r>
       <r>  -23.1446    1.0000 </r>
       <r>  -23.0865    1.0000 </r>
       <r>  -23.0623    1.0000 </r>
       <r>  -23.0460    1.0000 </r>
       <r>  -23.0163    1.0000 </r>
       <r>  -22.9651    1.0000 </r>
       <r>  -22.9617    1.0000 </r>
       <r>  -22.9524    1.0000 </r>
       <r>  -22.8937    1.0000 </r>
       <r>  -22.8763    1.0000 </r>
       <r>  -22.8491    1.0000 </r>
       <r>  -22.8305    1.0000 </r>
       <r>  -22.7895    1.0000 </r>
       <r>  -22.7509    1.0000 </r>
       <r>  -22.7392    1.0000 </r>
       <r>  -22.6237    1.0000 </r>
       <r>  -18.9952    1.0000 </r>
       <r>  -18.9421    1.0000 </r>
       <r>  -18.9353    1.0000 </r>
       <r>  -18.6231    1.0000 </r>
       <r>   -7.1371    1.0000 </r>
       <r>   -7.0308    1.0000 </r>
       <r>   -6.9795    1.0000 </r>
       <r>   -6.8297    1.0000 </r>
       <r>   -6.7789    1.0000 </r>
       <r>   -6.7141    1.0000 </r>
       <r>   -6.6959    1.0000 </r>
       <r>   -6.6427    1.0000 </r>
       <r>   -6.5745    1.0000 </r>
       <r>   -6.5280    1.0000 </r>
       <r>   -6.4843    1.0000 </r>
       <r>   -6.4621    1.0000 </r>
       <r>   -6.4279    1.0000 </r>
       <r>   -6.4044    1.0000 </r>
       <r>   -6.3286    1.0000 </r>
       <r>   -6.3016    1.0000 </r>
       <r>   -6.2546    1.0000 </r>
       <r>   -6.2049    1.0000 </r>
       <r>   -6.1771    1.0000 </r>
       <r>   -6.1450    1.0000 </r>
       <r>   -6.0704    1.0000 </r>
       <r>   -6.0506    1.0000 </r>
       <r>   -6.0436    1.0000 </r>
       <r>   -6.0366    1.0000 </r>
       <r>   -5.9766    1.0000 </r>
       <r>   -5.9646    1.0000 </r>
       <r>   -5.9375    1.0000 </r>
       <r>   -5.8988    1.0000 </r>
       <r>   -5.8623    1.0000 </r>
       <r>   -5.8236    1.0000 </r>
       <r>   -5.7958    1.0000 </r>
       <r>   -5.7887    1.0000 </r>
       <r>   -5.7542    1.0000 </r>
       <r>   -5.7367    1.0000 </r>
       <r>   -5.7221    1.0000 </r>
       <r>   -5.7047    1.0000 </r>
       <r>   -5.6574    1.0000 </r>
       <r>   -5.6288    1.0000 </r>
       <r>   -5.6195    1.0000 </r>
       <r>   -5.5742    1.0000 </r>
       <r>   -5.5291    1.0000 </r>
       <r>   -5.5176    1.0000 </r>
       <r>   -5.4903    1.0000 </r>
       <r>   -5.4475    1.0000 </r>
       <r>   -5.3521    1.0000 </r>
       <r>   -5.2938    1.0000 </r>
       <r>   -5.2720    1.0000 </r>
       <r>   -5.2209    1.0000 </r>
       <r>   -5.1470    1.0000 </r>
       <r>   -5.1157    1.0000 </r>
       <r>   -5.0957    1.0000 </r>
       <r>   -5.0633    1.0000 </r>
       <r>   -5.0402    1.0000 </r>
       <r>   -5.0017    1.0000 </r>
       <r>   -4.9776    1.0000 </r>
       <r>   -4.9410    1.0000 </r>
       <r>   -4.9348    1.0000 </r>
       <r>   -4.9096    1.0000 </r>
       <r>   -4.8845    1.0000 </r>
       <r>   -4.8566    1.0000 </r>
       <r>   -4.7507    1.0000 </r>
       <r>   -4.7293    1.0000 </r>
       <r>   -4.6811    1.0000 </r>
       <r>   -4.6692    1.0000 </r>
       <r>   -4.6573    1.0000 </r>
       <r>   -4.6239    1.0000 </r>
       <r>   -4.6056    1.0000 </r>
       <r>   -4.5738    1.0000 </r>
       <r>   -4.5103    1.0000 </r>
       <r>   -4.4945    1.0000 </r>
       <r>   -4.4588    1.0000 </r>
       <r>   -4.4305    1.0000 </r>
       <r>   -4.4037    1.0000 </r>
       <r>   -4.3606    1.0000 </r>
       <r>   -4.3370    1.0000 </r>
       <r>   -4.3266    1.0000 </r>
       <r>   -4.3096    1.0000 </r>
       <r>   -4.2648    1.0000 </r>
       <r>   -4.2458    1.0000 </r>
       <r>   -4.2120    1.0000 </r>
       <r>   -4.2017    1.0000 </r>
       <r>   -4.1779    1.0000 </r>
       <r>   -4.1242    1.0000 </r>
       <r>   -4.0715    1.0000 </r>
       <r>   -4.0504    1.0000 </r>
       <r>   -4.0062    1.0000 </r>
       <r>   -3.9848    1.0000 </r>
       <r>   -3.9759    1.0000 </r>
       <r>   -3.9568    1.0000 </r>
       <r>   -3.9535    1.0000 </r>
       <r>   -3.9426    1.0000 </r>
       <r>   -3.9169    1.0000 </r>
       <r>   -3.8892    1.0000 </r>
       <r>   -3.8329    1.0000 </r>
       <r>   -3.7663    1.0000 </r>
       <r>   -3.7061    1.0000 </r>
       <r>   -3.6952    1.0000 </r>
       <r>   -3.6826    1.0000 </r>
       <r>   -3.6564    1.0000 </r>
       <r>   -3.6252    1.0000 </r>
       <r>   -3.5922    1.0000 </r>
       <r>   -3.5778    1.0000 </r>
       <r>   -3.5639    1.0000 </r>
       <r>   -3.5182    1.0000 </r>
       <r>   -3.4984    1.0000 </r>
       <r>   -3.4619    1.0000 </r>
       <r>   -3.4016    1.0000 </r>
       <r>   -3.3733    1.0000 </r>
       <r>   -1.0665    1.0000 </r>
       <r>   -1.0506    1.0000 </r>
       <r>   -1.0183    1.0000 </r>
       <r>   -0.9439    1.0000 </r>
       <r>   -0.7621    1.0001 </r>
       <r>   -0.7481    1.0001 </r>
       <r>   -0.7334    1.0002 </r>
       <r>   -0.7277    1.0002 </r>
       <r>   -0.6629    1.0011 </r>
       <r>   -0.6579    1.0013 </r>
       <r>   -0.6325    1.0022 </r>
       <r>   -0.6164    1.0030 </r>
       <r>   -0.6039    1.0038 </r>
       <r>   -0.5938    1.0046 </r>
       <r>   -0.5883    1.0051 </r>
       <r>   -0.5802    1.0059 </r>
       <r>   -0.5741    1.0066 </r>
       <r>   -0.5663    1.0075 </r>
       <r>   -0.5450    1.0104 </r>
       <r>   -0.5397    1.0113 </r>
       <r>   -0.5136    1.0161 </r>
       <r>   -0.4892    1.0214 </r>
       <r>   -0.4836    1.0227 </r>
       <r>   -0.4789    1.0238 </r>
       <r>   -0.4512    1.0300 </r>
       <r>   -0.4491    1.0304 </r>
       <r>   -0.4336    1.0332 </r>
       <r>   -0.4282    1.0340 </r>
       <r>   -0.4135    1.0353 </r>
       <r>   -0.3984    1.0351 </r>
       <r>   -0.3874    1.0338 </r>
       <r>   -0.3730    1.0299 </r>
       <r>   -0.3646    1.0264 </r>
       <r>   -0.3599    1.0239 </r>
       <r>   -0.3325    1.0022 </r>
       <r>   -0.3164    0.9824 </r>
       <r>   -0.2939    0.9447 </r>
       <r>   -0.2803    0.9160 </r>
       <r>   -0.2745    0.9022 </r>
       <r>   -0.2690    0.8885 </r>
       <r>   -0.2262    0.7562 </r>
       <r>   -0.2241    0.7489 </r>
       <r>   -0.2145    0.7136 </r>
       <r>   -0.2079    0.6883 </r>
       <r>   -0.1529    0.4613 </r>
       <r>   -0.1422    0.4164 </r>
       <r>   -0.1027    0.2603 </r>
       <r>   -0.0877    0.2080 </r>
       <r>   -0.0655    0.1394 </r>
       <r>   -0.0476    0.0926 </r>
       <r>    0.0153   -0.0091 </r>
       <r>    0.0430   -0.0276 </r>
       <r>    0.0903   -0.0353 </r>
       <r>    0.1022   -0.0342 </r>
       <r>    0.1908   -0.0158 </r>
       <r>    0.2196   -0.0106 </r>
       <r>    0.2705   -0.0046 </r>
       <r>    0.2984   -0.0027 </r>
       <r>    0.3460   -0.0010 </r>
       <r>    0.3534   -0.0008 </r>
       <r>    0.3883   -0.0003 </r>
       <r>    0.4142   -0.0002 </r>
       <r>    0.4267   -0.0001 </r>
       <r>    0.4534   -0.0001 </r>
       <r>    0.5009   -0.0000 </r>
       <r>    0.5183   -0.0000 </r>
       <r>    0.6552   -0.0000 </r>
       <r>    0.6652   -0.0000 </r>
       <r>    0.7219   -0.0000 </r>
       <r>    0.7552   -0.0000 </r>
       <r>    0.8034   -0.0000 </r>
       <r>    0.8549   -0.0000 </r>
       <r>    0.8787   -0.0000 </r>
       <r>    0.8874   -0.0000 </r>
       <r>    0.9991   -0.0000 </r>
       <r>    1.0158   -0.0000 </r>
       <r>    1.0552   -0.0000 </r>
       <r>    1.0783   -0.0000 </r>
       <r>    1.1561   -0.0000 </r>
       <r>    1.1664   -0.0000 </r>
       <r>    5.1413   -0.0000 </r>
      </set>
      <set comment="kpoint 4">
       <r>  -24.2147    1.0000 </r>
       <r>  -24.0204    1.0000 </r>
       <r>  -23.9657    1.0000 </r>
       <r>  -23.9044    1.0000 </r>
       <r>  -23.8305    1.0000 </r>
       <r>  -23.7923    1.0000 </r>
       <r>  -23.7476    1.0000 </r>
       <r>  -23.7022    1.0000 </r>
       <r>  -23.6446    1.0000 </r>
       <r>  -23.5870    1.0000 </r>
       <r>  -23.4813    1.0000 </r>
       <r>  -23.4590    1.0000 </r>
       <r>  -23.3651    1.0000 </r>
       <r>  -23.3379    1.0000 </r>
       <r>  -23.2032    1.0000 </r>
       <r>  -23.1509    1.0000 </r>
       <r>  -23.1447    1.0000 </r>
       <r>  -23.0845    1.0000 </r>
       <r>  -23.0616    1.0000 </r>
       <r>  -23.0468    1.0000 </r>
       <r>  -23.0174    1.0000 </r>
       <r>  -22.9669    1.0000 </r>
       <r>  -22.9635    1.0000 </r>
       <r>  -22.9481    1.0000 </r>
       <r>  -22.8928    1.0000 </r>
       <r>  -22.8801    1.0000 </r>
       <r>  -22.8486    1.0000 </r>
       <r>  -22.8277    1.0000 </r>
       <r>  -22.7900    1.0000 </r>
       <r>  -22.7520    1.0000 </r>
       <r>  -22.7384    1.0000 </r>
       <r>  -22.6229    1.0000 </r>
       <r>  -18.9951    1.0000 </r>
       <r>  -18.9427    1.0000 </r>
       <r>  -18.9346    1.0000 </r>
       <r>  -18.6230    1.0000 </r>
       <r>   -7.1448    1.0000 </r>
       <r>   -7.0403    1.0000 </r>
       <r>   -6.9870    1.0000 </r>
       <r>   -6.8283    1.0000 </r>
       <r>   -6.7896    1.0000 </r>
       <r>   -6.7296    1.0000 </r>
       <r>   -6.7087    1.0000 </r>
       <r>   -6.6517    1.0000 </r>
       <r>   -6.5926    1.0000 </r>
       <r>   -6.5481    1.0000 </r>
       <r>   -6.4966    1.0000 </r>
       <r>   -6.4580    1.0000 </r>
       <r>   -6.3923    1.0000 </r>
       <r>   -6.3340    1.0000 </r>
       <r>   -6.3304    1.0000 </r>
       <r>   -6.3112    1.0000 </r>
       <r>   -6.2773    1.0000 </r>
       <r>   -6.2266    1.0000 </r>
       <r>   -6.1568    1.0000 </r>
       <r>   -6.1154    1.0000 </r>
       <r>   -6.0946    1.0000 </r>
       <r>   -6.0352    1.0000 </r>
       <r>   -6.0308    1.0000 </r>
       <r>   -6.0269    1.0000 </r>
       <r>   -5.9704    1.0000 </r>
       <r>   -5.9587    1.0000 </r>
       <r>   -5.9159    1.0000 </r>
       <r>   -5.8845    1.0000 </r>
       <r>   -5.8794    1.0000 </r>
       <r>   -5.8341    1.0000 </r>
       <r>   -5.8192    1.0000 </r>
       <r>   -5.8054    1.0000 </r>
       <r>   -5.7387    1.0000 </r>
       <r>   -5.7264    1.0000 </r>
       <r>   -5.7131    1.0000 </r>
       <r>   -5.6793    1.0000 </r>
       <r>   -5.6706    1.0000 </r>
       <r>   -5.6266    1.0000 </r>
       <r>   -5.6014    1.0000 </r>
       <r>   -5.5497    1.0000 </r>
       <r>   -5.5329    1.0000 </r>
       <r>   -5.4967    1.0000 </r>
       <r>   -5.4820    1.0000 </r>
       <r>   -5.4523    1.0000 </r>
       <r>   -5.3137    1.0000 </r>
       <r>   -5.2820    1.0000 </r>
       <r>   -5.2257    1.0000 </r>
       <r>   -5.1971    1.0000 </r>
       <r>   -5.1773    1.0000 </r>
       <r>   -5.1300    1.0000 </r>
       <r>   -5.1218    1.0000 </r>
       <r>   -5.0926    1.0000 </r>
       <r>   -5.0773    1.0000 </r>
       <r>   -5.0240    1.0000 </r>
       <r>   -4.9841    1.0000 </r>
       <r>   -4.9710    1.0000 </r>
       <r>   -4.9465    1.0000 </r>
       <r>   -4.9042    1.0000 </r>
       <r>   -4.8225    1.0000 </r>
       <r>   -4.8160    1.0000 </r>
       <r>   -4.7689    1.0000 </r>
       <r>   -4.7262    1.0000 </r>
       <r>   -4.7200    1.0000 </r>
       <r>   -4.6838    1.0000 </r>
       <r>   -4.6728    1.0000 </r>
       <r>   -4.6280    1.0000 </r>
       <r>   -4.5858    1.0000 </r>
       <r>   -4.5625    1.0000 </r>
       <r>   -4.5542    1.0000 </r>
       <r>   -4.4604    1.0000 </r>
       <r>   -4.4486    1.0000 </r>
       <r>   -4.4164    1.0000 </r>
       <r>   -4.3986    1.0000 </r>
       <r>   -4.3698    1.0000 </r>
       <r>   -4.3294    1.0000 </r>
       <r>   -4.3178    1.0000 </r>
       <r>   -4.3048    1.0000 </r>
       <r>   -4.2515    1.0000 </r>
       <r>   -4.2404    1.0000 </r>
       <r>   -4.2154    1.0000 </r>
       <r>   -4.2088    1.0000 </r>
       <r>   -4.1628    1.0000 </r>
       <r>   -4.1580    1.0000 </r>
       <r>   -4.1436    1.0000 </r>
       <r>   -4.0889    1.0000 </r>
       <r>   -4.0427    1.0000 </r>
       <r>   -4.0350    1.0000 </r>
       <r>   -3.9981    1.0000 </r>
       <r>   -3.9545    1.0000 </r>
       <r>   -3.9435    1.0000 </r>
       <r>   -3.9402    1.0000 </r>
       <r>   -3.9019    1.0000 </r>
       <r>   -3.8537    1.0000 </r>
       <r>   -3.8424    1.0000 </r>
       <r>   -3.7918    1.0000 </r>
       <r>   -3.7364    1.0000 </r>
       <r>   -3.6929    1.0000 </r>
       <r>   -3.6728    1.0000 </r>
       <r>   -3.6408    1.0000 </r>
       <r>   -3.6207    1.0000 </r>
       <r>   -3.5962    1.0000 </r>
       <r>   -3.5828    1.0000 </r>
       <r>   -3.5394    1.0000 </r>
       <r>   -3.5239    1.0000 </r>
       <r>   -3.4600    1.0000 </r>
[...]
       <r>  -23.4587    1.0000 </r>
       <r>  -23.3630    1.0000 </r>
       <r>  -23.3386    1.0000 </r>
       <r>  -23.2033    1.0000 </r>
       <r>  -23.1493    1.0000 </r>
       <r>  -23.1443    1.0000 </r>
       <r>  -23.0858    1.0000 </r>
       <r>  -23.0619    1.0000 </r>
       <r>  -23.0456    1.0000 </r>
       <r>  -23.0159    1.0000 </r>
       <r>  -22.9643    1.0000 </r>
       <r>  -22.9616    1.0000 </r>
       <r>  -22.9519    1.0000 </r>
       <r>  -22.8932    1.0000 </r>
       <r>  -22.8758    1.0000 </r>
       <r>  -22.8483    1.0000 </r>
       <r>  -22.8300    1.0000 </r>
       <r>  -22.7892    1.0000 </r>
       <r>  -22.7505    1.0000 </r>
       <r>  -22.7389    1.0000 </r>
       <r>  -22.6233    1.0000 </r>
       <r>  -18.9950    1.0000 </r>
       <r>  -18.9419    1.0000 </r>
       <r>  -18.9351    1.0000 </r>
       <r>  -18.6229    1.0000 </r>
       <r>   -7.1370    1.0000 </r>
       <r>   -7.0300    1.0000 </r>
       <r>   -6.9801    1.0000 </r>
       <r>   -6.8292    1.0000 </r>
       <r>   -6.7799    1.0000 </r>
       <r>   -6.7155    1.0000 </r>
       <r>   -6.7003    1.0000 </r>
       <r>   -6.6422    1.0000 </r>
       <r>   -6.5675    1.0000 </r>
       <r>   -6.5095    1.0000 </r>
       <r>   -6.4896    1.0000 </r>
       <r>   -6.4598    1.0000 </r>
       <r>   -6.4125    1.0000 </r>
       <r>   -6.3885    1.0000 </r>
       <r>   -6.3583    1.0000 </r>
       <r>   -6.3413    1.0000 </r>
       <r>   -6.2718    1.0000 </r>
       <r>   -6.1843    1.0000 </r>
       <r>   -6.1706    1.0000 </r>
       <r>   -6.1371    1.0000 </r>
       <r>   -6.0730    1.0000 </r>
       <r>   -6.0573    1.0000 </r>
       <r>   -6.0095    1.0000 </r>
       <r>   -6.0042    1.0000 </r>
       <r>   -5.9846    1.0000 </r>
       <r>   -5.9771    1.0000 </r>
       <r>   -5.9550    1.0000 </r>
       <r>   -5.8949    1.0000 </r>
       <r>   -5.8582    1.0000 </r>
       <r>   -5.8279    1.0000 </r>
       <r>   -5.8249    1.0000 </r>
       <r>   -5.7782    1.0000 </r>
       <r>   -5.7535    1.0000 </r>
       <r>   -5.7350    1.0000 </r>
       <r>   -5.7050    1.0000 </r>
       <r>   -5.7007    1.0000 </r>
       <r>   -5.6731    1.0000 </r>
       <r>   -5.6450    1.0000 </r>
       <r>   -5.6152    1.0000 </r>
       <r>   -5.5727    1.0000 </r>
       <r>   -5.5478    1.0000 </r>
       <r>   -5.4984    1.0000 </r>
       <r>   -5.4867    1.0000 </r>
       <r>   -5.4407    1.0000 </r>
       <r>   -5.3556    1.0000 </r>
       <r>   -5.2887    1.0000 </r>
       <r>   -5.2746    1.0000 </r>
       <r>   -5.2258    1.0000 </r>
       <r>   -5.1489    1.0000 </r>
       <r>   -5.1048    1.0000 </r>
       <r>   -5.0987    1.0000 </r>
       <r>   -5.0543    1.0000 </r>
       <r>   -4.9959    1.0000 </r>
       <r>   -4.9952    1.0000 </r>
       <r>   -4.9641    1.0000 </r>
       <r>   -4.9459    1.0000 </r>
       <r>   -4.9368    1.0000 </r>
       <r>   -4.8945    1.0000 </r>
       <r>   -4.8867    1.0000 </r>
       <r>   -4.8613    1.0000 </r>
       <r>   -4.7825    1.0000 </r>
       <r>   -4.7512    1.0000 </r>
       <r>   -4.7275    1.0000 </r>
       <r>   -4.7031    1.0000 </r>
       <r>   -4.6290    1.0000 </r>
       <r>   -4.6173    1.0000 </r>
       <r>   -4.6093    1.0000 </r>
       <r>   -4.5972    1.0000 </r>
       <r>   -4.5171    1.0000 </r>
       <r>   -4.4866    1.0000 </r>
       <r>   -4.4492    1.0000 </r>
       <r>   -4.4259    1.0000 </r>
       <r>   -4.3760    1.0000 </r>
       <r>   -4.3506    1.0000 </r>
       <r>   -4.3118    1.0000 </r>
       <r>   -4.3009    1.0000 </r>
       <r>   -4.2832    1.0000 </r>
       <r>   -4.2643    1.0000 </r>
       <r>   -4.2487    1.0000 </r>
       <r>   -4.2274    1.0000 </r>
       <r>   -4.2154    1.0000 </r>
       <r>   -4.1743    1.0000 </r>
       <r>   -4.1355    1.0000 </r>
       <r>   -4.0828    1.0000 </r>
       <r>   -4.0639    1.0000 </r>
       <r>   -4.0245    1.0000 </r>
       <r>   -3.9831    1.0000 </r>
       <r>   -3.9684    1.0000 </r>
       <r>   -3.9618    1.0000 </r>
       <r>   -3.9536    1.0000 </r>
       <r>   -3.9404    1.0000 </r>
       <r>   -3.9091    1.0000 </r>
       <r>   -3.8701    1.0000 </r>
       <r>   -3.8125    1.0000 </r>
       <r>   -3.7916    1.0000 </r>
       <r>   -3.7056    1.0000 </r>
       <r>   -3.6895    1.0000 </r>
       <r>   -3.6845    1.0000 </r>
       <r>   -3.6695    1.0000 </r>
       <r>   -3.6372    1.0000 </r>
       <r>   -3.5870    1.0000 </r>
       <r>   -3.5678    1.0000 </r>
       <r>   -3.5654    1.0000 </r>
       <r>   -3.5041    1.0000 </r>
       <r>   -3.4838    1.0000 </r>
       <r>   -3.4468    1.0000 </r>
       <r>   -3.4197    1.0000 </r>
       <r>   -3.3862    1.0000 </r>
       <r>   -1.0605    1.0000 </r>
       <r>   -1.0547    1.0000 </r>
       <r>   -1.0205    1.0000 </r>
       <r>   -0.9451    1.0000 </r>
       <r>   -0.7562    1.0001 </r>
       <r>   -0.7481    1.0001 </r>
       <r>   -0.7338    1.0002 </r>
       <r>   -0.7332    1.0002 </r>
       <r>   -0.6558    1.0013 </r>
       <r>   -0.6440    1.0017 </r>
       <r>   -0.6310    1.0023 </r>
       <r>   -0.6235    1.0026 </r>
       <r>   -0.6120    1.0033 </r>
       <r>   -0.6077    1.0036 </r>
       <r>   -0.6027    1.0039 </r>
       <r>   -0.5798    1.0059 </r>
       <r>   -0.5670    1.0074 </r>
       <r>   -0.5550    1.0090 </r>
       <r>   -0.5415    1.0110 </r>
       <r>   -0.5273    1.0134 </r>
       <r>   -0.5140    1.0160 </r>
       <r>   -0.5051    1.0179 </r>
       <r>   -0.4889    1.0215 </r>
       <r>   -0.4837    1.0227 </r>
       <r>   -0.4557    1.0291 </r>
       <r>   -0.4475    1.0307 </r>
       <r>   -0.4366    1.0327 </r>
       <r>   -0.4348    1.0330 </r>
       <r>   -0.3955    1.0349 </r>
       <r>   -0.3884    1.0339 </r>
       <r>   -0.3738    1.0302 </r>
       <r>   -0.3710    1.0291 </r>
       <r>   -0.3513    1.0186 </r>
       <r>   -0.3382    1.0079 </r>
       <r>   -0.3365    1.0062 </r>
       <r>   -0.3276    0.9967 </r>
       <r>   -0.2881    0.9330 </r>
       <r>   -0.2734    0.8995 </r>
       <r>   -0.2688    0.8879 </r>
       <r>   -0.2651    0.8781 </r>
       <r>   -0.2363    0.7911 </r>
       <r>   -0.2286    0.7647 </r>
       <r>   -0.2260    0.7555 </r>
       <r>   -0.2240    0.7486 </r>
       <r>   -0.1636    0.5064 </r>
       <r>   -0.1580    0.4826 </r>
       <r>   -0.1520    0.4574 </r>
       <r>   -0.1470    0.4363 </r>
       <r>   -0.0018    0.0096 </r>
       <r>    0.0136   -0.0075 </r>
       <r>    0.0219   -0.0147 </r>
       <r>    0.0330   -0.0224 </r>
       <r>    0.1354   -0.0282 </r>
       <r>    0.1540   -0.0240 </r>
       <r>    0.1584   -0.0229 </r>
       <r>    0.1829   -0.0175 </r>
       <r>    0.2796   -0.0039 </r>
       <r>    0.3057   -0.0023 </r>
       <r>    0.3210   -0.0017 </r>
       <r>    0.3281   -0.0014 </r>
       <r>    0.3860   -0.0004 </r>
       <r>    0.4058   -0.0002 </r>
       <r>    0.4112   -0.0002 </r>
       <r>    0.4374   -0.0001 </r>
       <r>    0.5703   -0.0000 </r>
       <r>    0.5912   -0.0000 </r>
       <r>    0.5977   -0.0000 </r>
       <r>    0.6182   -0.0000 </r>
       <r>    0.7139   -0.0000 </r>
       <r>    0.7684   -0.0000 </r>
       <r>    0.7839   -0.0000 </r>
       <r>    0.7963   -0.0000 </r>
       <r>    0.9054   -0.0000 </r>
       <r>    0.9664   -0.0000 </r>
       <r>    0.9846   -0.0000 </r>
       <r>    1.0238   -0.0000 </r>
       <r>    1.0869   -0.0000 </r>
       <r>    1.1057   -0.0000 </r>
       <r>    1.1216   -0.0000 </r>
       <r>    1.1314   -0.0000 </r>
       <r>    5.2950    0.0000 </r>
      </set>
      <set comment="kpoint 8">
       <r>  -24.2148    1.0000 </r>
       <r>  -24.0206    1.0000 </r>
       <r>  -23.9659    1.0000 </r>
       <r>  -23.9046    1.0000 </r>
       <r>  -23.8306    1.0000 </r>
       <r>  -23.7924    1.0000 </r>
       <r>  -23.7477    1.0000 </r>
       <r>  -23.7023    1.0000 </r>
       <r>  -23.6446    1.0000 </r>
       <r>  -23.5868    1.0000 </r>
       <r>  -23.4813    1.0000 </r>
       <r>  -23.4591    1.0000 </r>
       <r>  -23.3656    1.0000 </r>
       <r>  -23.3380    1.0000 </r>
       <r>  -23.2035    1.0000 </r>
       <r>  -23.1512    1.0000 </r>
       <r>  -23.1449    1.0000 </r>
       <r>  -23.0850    1.0000 </r>
       <r>  -23.0617    1.0000 </r>
       <r>  -23.0468    1.0000 </r>
       <r>  -23.0176    1.0000 </r>
       <r>  -22.9667    1.0000 </r>
       <r>  -22.9643    1.0000 </r>
       <r>  -22.9480    1.0000 </r>
       <r>  -22.8931    1.0000 </r>
       <r>  -22.8803    1.0000 </r>
       <r>  -22.8486    1.0000 </r>
       <r>  -22.8277    1.0000 </r>
       <r>  -22.7901    1.0000 </r>
       <r>  -22.7522    1.0000 </r>
       <r>  -22.7385    1.0000 </r>
       <r>  -22.6229    1.0000 </r>
       <r>  -18.9952    1.0000 </r>
       <r>  -18.9427    1.0000 </r>
       <r>  -18.9346    1.0000 </r>
       <r>  -18.6231    1.0000 </r>
       <r>   -7.1450    1.0000 </r>
       <r>   -7.0400    1.0000 </r>
       <r>   -6.9879    1.0000 </r>
       <r>   -6.8274    1.0000 </r>
       <r>   -6.7914    1.0000 </r>
       <r>   -6.7329    1.0000 </r>
       <r>   -6.7032    1.0000 </r>
       <r>   -6.6579    1.0000 </r>
       <r>   -6.5863    1.0000 </r>
       <r>   -6.5586    1.0000 </r>
       <r>   -6.4804    1.0000 </r>
       <r>   -6.4222    1.0000 </r>
       <r>   -6.3936    1.0000 </r>
       <r>   -6.3865    1.0000 </r>
       <r>   -6.3229    1.0000 </r>
       <r>   -6.3078    1.0000 </r>
       <r>   -6.3012    1.0000 </r>
       <r>   -6.2155    1.0000 </r>
       <r>   -6.1514    1.0000 </r>
       <r>   -6.1223    1.0000 </r>
       <r>   -6.0785    1.0000 </r>
       <r>   -6.0485    1.0000 </r>
       <r>   -6.0121    1.0000 </r>
       <r>   -6.0036    1.0000 </r>
       <r>   -5.9760    1.0000 </r>
       <r>   -5.9535    1.0000 </r>
       <r>   -5.9197    1.0000 </r>
       <r>   -5.8979    1.0000 </r>
       <r>   -5.8759    1.0000 </r>
       <r>   -5.8425    1.0000 </r>
       <r>   -5.8300    1.0000 </r>
       <r>   -5.8056    1.0000 </r>
       <r>   -5.7533    1.0000 </r>
       <r>   -5.7351    1.0000 </r>
       <r>   -5.7221    1.0000 </r>
       <r>   -5.7050    1.0000 </r>
       <r>   -5.6573    1.0000 </r>
       <r>   -5.6254    1.0000 </r>
       <r>   -5.5954    1.0000 </r>
       <r>   -5.5311    1.0000 </r>
       <r>   -5.5274    1.0000 </r>
       <r>   -5.5044    1.0000 </r>
       <r>   -5.4726    1.0000 </r>
       <r>   -5.4432    1.0000 </r>
       <r>   -5.2985    1.0000 </r>
       <r>   -5.2672    1.0000 </r>
       <r>   -5.2285    1.0000 </r>
       <r>   -5.1984    1.0000 </r>
       <r>   -5.1774    1.0000 </r>
       <r>   -5.1518    1.0000 </r>
       <r>   -5.1149    1.0000 </r>
       <r>   -5.1037    1.0000 </r>
       <r>   -5.0601    1.0000 </r>
       <r>   -5.0147    1.0000 </r>
       <r>   -4.9971    1.0000 </r>
       <r>   -4.9729    1.0000 </r>
       <r>   -4.8956    1.0000 </r>
       <r>   -4.8709    1.0000 </r>
       <r>   -4.8640    1.0000 </r>
       <r>   -4.8337    1.0000 </r>
       <r>   -4.7902    1.0000 </r>
       <r>   -4.7486    1.0000 </r>
       <r>   -4.7256    1.0000 </r>
       <r>   -4.7136    1.0000 </r>
       <r>   -4.6777    1.0000 </r>
       <r>   -4.6176    1.0000 </r>
       <r>   -4.5926    1.0000 </r>
       <r>   -4.5711    1.0000 </r>
       <r>   -4.5049    1.0000 </r>
       <r>   -4.4657    1.0000 </r>
       <r>   -4.4589    1.0000 </r>
       <r>   -4.4385    1.0000 </r>
       <r>   -4.3858    1.0000 </r>
       <r>   -4.3640    1.0000 </r>
       <r>   -4.3549    1.0000 </r>
       <r>   -4.3212    1.0000 </r>
       <r>   -4.2703    1.0000 </r>
       <r>   -4.2554    1.0000 </r>
       <r>   -4.2206    1.0000 </r>
       <r>   -4.2074    1.0000 </r>
       <r>   -4.1852    1.0000 </r>
       <r>   -4.1785    1.0000 </r>
       <r>   -4.1582    1.0000 </r>
       <r>   -4.1412    1.0000 </r>
       <r>   -4.1038    1.0000 </r>
       <r>   -4.0574    1.0000 </r>
       <r>   -4.0349    1.0000 </r>
       <r>   -3.9909    1.0000 </r>
       <r>   -3.9796    1.0000 </r>
       <r>   -3.9467    1.0000 </r>
       <r>   -3.9241    1.0000 </r>
       <r>   -3.8858    1.0000 </r>
       <r>   -3.8704    1.0000 </r>
       <r>   -3.8211    1.0000 </r>
       <r>   -3.7939    1.0000 </r>
       <r>   -3.7288    1.0000 </r>
       <r>   -3.6999    1.0000 </r>
       <r>   -3.6724    1.0000 </r>
       <r>   -3.6480    1.0000 </r>
       <r>   -3.6276    1.0000 </r>
       <r>   -3.6068    1.0000 </r>
       <r>   -3.5697    1.0000 </r>
       <r>   -3.5477    1.0000 </r>
       <r>   -3.5178    1.0000 </r>
       <r>   -3.4496    1.0000 </r>
       <r>   -3.4173    1.0000 </r>
       <r>   -3.4032    1.0000 </r>
       <r>   -3.3402    1.0000 </r>
       <r>   -1.0743    1.0000 </r>
       <r>   -1.0542    1.0000 </r>
       <r>   -1.0203    1.0000 </r>
       <r>   -0.9482    1.0000 </r>
       <r>   -0.7689    1.0001 </r>
       <r>   -0.7537    1.0001 </r>
       <r>   -0.7022    1.0005 </r>
       <r>   -0.6910    1.0006 </r>
       <r>   -0.6878    1.0006 </r>
       <r>   -0.6762    1.0008 </r>
       <r>   -0.6544    1.0014 </r>
       <r>   -0.6359    1.0020 </r>
       <r>   -0.6313    1.0022 </r>
       <r>   -0.6098    1.0034 </r>
       <r>   -0.5907    1.0049 </r>
       <r>   -0.5700    1.0070 </r>
       <r>   -0.5628    1.0079 </r>
       <r>   -0.5605    1.0082 </r>
       <r>   -0.5349    1.0121 </r>
       <r>   -0.5207    1.0147 </r>
       <r>   -0.4975    1.0196 </r>
       <r>   -0.4807    1.0234 </r>
       <r>   -0.4701    1.0258 </r>
       <r>   -0.4674    1.0265 </r>
       <r>   -0.4512    1.0300 </r>
       <r>   -0.4451    1.0312 </r>
       <r>   -0.4301    1.0337 </r>
       <r>   -0.4125    1.0353 </r>
       <r>   -0.4101    1.0354 </r>
       <r>   -0.4002    1.0353 </r>
       <r>   -0.3794    1.0319 </r>
       <r>   -0.3716    1.0294 </r>
       <r>   -0.3488    1.0168 </r>
       <r>   -0.3390    1.0086 </r>
       <r>   -0.3187    0.9856 </r>
       <r>   -0.3175    0.9840 </r>
       <r>   -0.3079    0.9695 </r>
       <r>   -0.2959    0.9486 </r>
       <r>   -0.2770    0.9082 </r>
       <r>   -0.2631    0.8728 </r>
       <r>   -0.2455    0.8210 </r>
       <r>   -0.2286    0.7648 </r>
       <r>   -0.2073    0.6858 </r>
       <r>   -0.2006    0.6597 </r>
       <r>   -0.1609    0.4950 </r>
       <r>   -0.1515    0.4554 </r>
       <r>   -0.1420    0.4156 </r>
       <r>   -0.1364    0.3921 </r>
       <r>   -0.0060    0.0151 </r>
       <r>    0.0012    0.0058 </r>
       <r>    0.0275   -0.0188 </r>
       <r>    0.0383   -0.0253 </r>
       <r>    0.0834   -0.0355 </r>
       <r>    0.0993   -0.0345 </r>
       <r>    0.1649   -0.0214 </r>
       <r>    0.1766   -0.0188 </r>
       <r>    0.2015   -0.0137 </r>
       <r>    0.2092   -0.0124 </r>
       <r>    0.2903   -0.0031 </r>
       <r>    0.3020   -0.0025 </r>
       <r>    0.4234   -0.0001 </r>
       <r>    0.4237   -0.0001 </r>
       <r>    0.4510   -0.0001 </r>
       <r>    0.4861   -0.0000 </r>
       <r>    0.5875   -0.0000 </r>
       <r>    0.6119   -0.0000 </r>
       <r>    0.6378   -0.0000 </r>
       <r>    0.6696   -0.0000 </r>
       <r>    0.7442   -0.0000 </r>
       <r>    0.7824   -0.0000 </r>
       <r>    0.8525   -0.0000 </r>
       <r>    0.8748   -0.0000 </r>
       <r>    0.9028   -0.0000 </r>
       <r>    0.9274   -0.0000 </r>
       <r>    0.9330   -0.0000 </r>
       <r>    0.9858   -0.0000 </r>
       <r>    1.0157   -0.0000 </r>
       <r>    1.0701   -0.0000 </r>
       <r>    1.1087   -0.0000 </r>
       <r>    1.1326   -0.0000 </r>
       <r>    5.5421    0.0000 </r>
      </set>
     </set>
    </set>
   </array>
  </eigenvalues>
  <separator name="orbital magnetization" >
   <v name="MAGDIPOLOUT">      0.00000000      0.00000000      0.00000000</v>
  </separator>
 </calculation>
 <structure name="finalpos" >
  <crystal>
   <varray name="basis" >
    <v>       9.40119100       0.00000000      -0.08412900 </v>
    <v>       0.00000000       5.35946700       0.00000000 </v>
    <v>       0.00000000       0.00000000      14.95565100 </v>
   </varray>
   <i name="volume">    753.54605297 </i>
   <varray name="rec_basis" >
    <v>       0.10636950       0.00000000       0.00000000 </v>
    <v>       0.00000000       0.18658572       0.00000000 </v>
    <v>       0.00059835       0.00000000       0.06686436 </v>
   </varray>
  </crystal>
  <varray name="positions" >
   <v>       0.16411200       0.48397600       0.17995900 </v>
   <v>       0.16411200       0.51602400       0.67425600 </v>
   <v>       0.67084800       0.98397600       0.17995900 </v>
   <v>       0.66411200       0.01602400       0.67995900 </v>
   <v>       0.17533200       0.47285200       0.97303200 </v>
   <v>       0.17533200       0.52714800       0.47303200 </v>
   <v>       0.67533200       0.97285200       0.97303200 </v>
   <v>       0.67533200       0.02714800       0.47303200 </v>
   <v>       0.33162900       0.02941400       0.82240100 </v>
   <v>       0.33162900       0.97058600       0.32240100 </v>
   <v>       0.83162900       0.52354900       0.82240100 </v>
   <v>       0.83285600       0.47058600       0.32240100 </v>
   <v>       0.33361900       0.00432000       0.50720300 </v>
   <v>       0.33361900       0.99568000       0.00867400 </v>
   <v>       0.83361900       0.50432000       0.51711500 </v>
   <v>       0.83361900       0.49568000       0.00815800 </v>
   <v>       0.30926400       0.26740800       0.92544800 </v>
   <v>       0.30926400       0.73259200       0.42544800 </v>
   <v>       0.80926400       0.76740800       0.92544800 </v>
   <v>       0.80926400       0.23259200       0.41808200 </v>
   <v>       0.00386100       0.36884200       0.24394900 </v>
   <v>       0.00386100       0.63115800       0.74394900 </v>
   <v>       0.50386100       0.86884200       0.24394900 </v>
   <v>       0.50386100       0.13115800       0.74394900 </v>
   <v>       0.02591400       0.39537700       0.57915900 </v>
   <v>       0.02591400       0.59525200       0.07767900 </v>
   <v>       0.52591400       0.89537700       0.58467200 </v>
   <v>       0.52591400       0.10462300       0.07915900 </v>
   <v>       0.17611800       0.21417000       0.08350500 </v>
   <v>       0.17611800       0.78583000       0.58350500 </v>
   <v>       0.67611800       0.71417000       0.08855200 </v>
   <v>       0.67611800       0.28583000       0.58350500 </v>
   <v>       0.18147400       0.20640400       0.73945400 </v>
   <v>       0.18147400       0.79655500       0.23945400 </v>
   <v>       0.68147400       0.70344500       0.73945400 </v>
   <v>       0.68930100       0.29655500       0.23945400 </v>
   <v>       0.18900300       0.20186000       0.42366300 </v>
   <v>       0.18900300       0.79814000       0.92366300 </v>
   <v>       0.68900300       0.70186000       0.42366300 </v>
   <v>       0.68900300       0.29814000       0.91814500 </v>
   <v>       0.30046700       0.34686800       0.57827500 </v>
   <v>       0.29347700       0.65313200       0.07827500 </v>
   <v>       0.79347700       0.84686800       0.57827500 </v>
   <v>       0.79347700       0.15313200       0.07827500 </v>
   <v>       0.30310600       0.30561100       0.24801900 </v>
   <v>       0.29673400       0.69438900       0.74801900 </v>
   <v>       0.80310600       0.80561100       0.24801900 </v>
   <v>       0.80310600       0.19438900       0.74801900 </v>
   <v>       0.49071400       0.13464800       0.42295500 </v>
   <v>       0.49071400       0.86535200       0.92295500 </v>
   <v>       0.99071400       0.63464800       0.42295500 </v>
   <v>       0.99071400       0.36535200       0.93269300 </v>
  </varray>
 </structure>
</modeling>
