 vasp.5.3.5 31Mar14 (build Aug 29 2014 19:41:47) complex                        
  
 executed on             LinuxIFC date 2019.01.22  14:42:19
 running on    1 total cores
 distrk:  each k-point on    1 cores,    1 groups
 distr:  one band on NCORES_PER_BAND=   1 cores,    1 groups


--------------------------------------------------------------------------------------------------------


 INCAR:
 POTCAR:    PAW_PBE Fe 06Sep2000                  
 POTCAR:    PAW_PBE O 08Apr2002                   
 POTCAR:    PAW_PBE F 08Apr2002                   
 POTCAR:    PAW_PBE Fe 06Sep2000                  
   VRHFIN =Fe:  d7 s1                                                           
   LEXCH  = PE                                                                  
   EATOM  =   594.3153 eV,   43.6809 Ry                                         
                                                                                
   TITEL  = PAW_PBE Fe 06Sep2000                                                
   LULTRA =        F    use ultrasoft PP ?                                      
   IUNSCR =        1    unscreen: 0-lin 1-nonlin 2-no                           
   RPACOR =    2.000    partial core radius                                     
   POMASS =   55.847; ZVAL   =    8.000    mass and valenz                      
   RCORE  =    2.300    outmost cutoff radius                                   
   RWIGS  =    2.460; RWIGS  =    1.302    wigner-seitz radius (au A)           
   ENMAX  =  267.882; ENMIN  =  200.911 eV                                      
   RCLOC  =    1.701    cutoff for local pot                                    
   LCOR   =        T    correct aug charges                                     
   LPAW   =        T    paw PP                                                  
   EAUG   =  511.368                                                            
   DEXC   =    0.000                                                            
   RMAX   =    2.356    core radius for proj-oper                               
   RAUG   =    1.300    factor for augmentation sphere                          
   RDEP   =    2.442    radius for radial grids                                 
   RDEPT  =    1.890    core radius for aug-charge                              
                                                                                
   Atomic configuration                                                         
    9 entries                                                                   
     n  l   j            E        occ.                                          
     1  0  0.50     -6993.8440   2.0000                                         
     2  0  0.50      -814.6047   2.0000                                         
     2  1  1.50      -693.3689   6.0000                                         
     3  0  0.50       -89.4732   2.0000                                         
     3  1  1.50       -55.6373   6.0000                                         
     3  2  2.50        -3.8151   7.0000                                         
     4  0  0.50        -4.2551   1.0000                                         
     4  1  1.50        -3.4015   0.0000                                         
     4  3  2.50        -1.3606   0.0000                                         
   Description                                                                  
     l       E           TYP  RCUT    TYP  RCUT                                 
     2     -3.8151135     23  2.300                                             
     2     -5.1756961     23  2.300                                             
     0     -4.2550963     23  2.300                                             
     0      7.2035603     23  2.300                                             
     1     -2.7211652     23  2.300                                             
     1     18.4316424     23  2.300                                             
  local pseudopotential read in
  partial core-charges read in
  partial kinetic energy density read in
  atomic valenz-charges read in
  non local Contribution for L=           2  read in
    real space projection operators read in
  non local Contribution for L=           2  read in
    real space projection operators read in
  non local Contribution for L=           0  read in
    real space projection operators read in
  non local Contribution for L=           0  read in
    real space projection operators read in
  non local Contribution for L=           1  read in
    real space projection operators read in
  non local Contribution for L=           1  read in
    real space projection operators read in
    PAW grid and wavefunctions read in
 
   number of l-projection  operators is LMAX  =           6
   number of lm-projection operators is LMMAX =          18
 
 POTCAR:    PAW_PBE O 08Apr2002                   
   VRHFIN =O: s2p4                                                              
   LEXCH  = PE                                                                  
   EATOM  =   432.3788 eV,   31.7789 Ry                                         
                                                                                
   TITEL  = PAW_PBE O 08Apr2002                                                 
   LULTRA =        F    use ultrasoft PP ?                                      
   IUNSCR =        1    unscreen: 0-lin 1-nonlin 2-no                           
   RPACOR =    1.200    partial core radius                                     
   POMASS =   16.000; ZVAL   =    6.000    mass and valenz                      
   RCORE  =    1.520    outmost cutoff radius                                   
   RWIGS  =    1.550; RWIGS  =    0.820    wigner-seitz radius (au A)           
   ENMAX  =  400.000; ENMIN  =  300.000 eV                                      
   ICORE  =        2    local potential                                         
   LCOR   =        T    correct aug charges                                     
   LPAW   =        T    paw PP                                                  
   EAUG   =  605.392                                                            
   DEXC   =    0.000                                                            
   RMAX   =    1.553    core radius for proj-oper                               
   RAUG   =    1.300    factor for augmentation sphere                          
   RDEP   =    1.550    radius for radial grids                                 
   RDEPT  =    1.329    core radius for aug-charge                              
                                                                                
   Atomic configuration                                                         
    4 entries                                                                   
     n  l   j            E        occ.                                          
     1  0  0.50      -514.6923   2.0000                                         
     2  0  0.50       -23.9615   2.0000                                         
     2  1  0.50        -9.0305   4.0000                                         
     3  2  1.50        -9.5241   0.0000                                         
   Description                                                                  
     l       E           TYP  RCUT    TYP  RCUT                                 
     0    -23.9615318     23  1.200                                             
     0     -9.5240782     23  1.200                                             
     1     -9.0304911     23  1.520                                             
     1      8.1634956     23  1.520                                             
     2     -9.5240782      7  1.500                                             
  local pseudopotential read in
  partial core-charges read in
  partial kinetic energy density read in
  kinetic energy density of atom read in
  atomic valenz-charges read in
  non local Contribution for L=           0  read in
    real space projection operators read in
  non local Contribution for L=           0  read in
    real space projection operators read in
  non local Contribution for L=           1  read in
    real space projection operators read in
  non local Contribution for L=           1  read in
    real space projection operators read in
    PAW grid and wavefunctions read in
 
   number of l-projection  operators is LMAX  =           4
   number of lm-projection operators is LMMAX =           8
 
 POTCAR:    PAW_PBE F 08Apr2002                   
   VRHFIN =F: s2p5                                                              
   LEXCH  = PE                                                                  
   EATOM  =   659.6475 eV,   48.4827 Ry                                         
                                                                                
   TITEL  = PAW_PBE F 08Apr2002                                                 
   LULTRA =        F    use ultrasoft PP ?                                      
   IUNSCR =        1    unscreen: 0-lin 1-nonlin 2-no                           
   RPACOR =    1.200    partial core radius                                     
   POMASS =   18.998; ZVAL   =    7.000    mass and valenz                      
   RCORE  =    1.520    outmost cutoff radius                                   
   RWIGS  =    1.500; RWIGS  =    0.794    wigner-seitz radius (au A)           
   ENMAX  =  400.000; ENMIN  =  300.000 eV                                      
   ICORE  =        2    local potential                                         
   LCOR   =        T    correct aug charges                                     
   LPAW   =        T    paw PP                                                  
   EAUG   =  613.614                                                            
   RMAX   =    1.555    core radius for proj-oper                               
   RAUG   =    1.300    factor for augmentation sphere                          
   RDEP   =    1.539    radius for radial grids                                 
   RDEPT  =    1.299    core radius for aug-charge                              
                                                                                
   Atomic configuration                                                         
    4 entries                                                                   
     n  l   j            E        occ.                                          
     1  0  0.50      -663.3661   2.0000                                         
     2  0  0.50       -29.8995   2.0000                                         
     2  1  0.50       -11.1114   5.0000                                         
     3  2  1.50       -10.8847   0.0000                                         
   Description                                                                  
     l       E           TYP  RCUT    TYP  RCUT                                 
     0    -29.8995018     23  1.200                                             
     0     -9.5240782     23  1.200                                             
     1    -11.1113914     23  1.520                                             
     1      1.3605826     23  1.520                                             
     2    -10.8846608      7  1.500                                             
  local pseudopotential read in
  partial core-charges read in
  partial kinetic energy density read in
  atomic valenz-charges read in
  non local Contribution for L=           0  read in
    real space projection operators read in
  non local Contribution for L=           0  read in
    real space projection operators read in
  non local Contribution for L=           1  read in
    real space projection operators read in
  non local Contribution for L=           1  read in
    real space projection operators read in
    PAW grid and wavefunctions read in
 
   number of l-projection  operators is LMAX  =           4
   number of lm-projection operators is LMMAX =           8
 
 Optimization of the real space projectors (new method)

 maximal supplied QI-value         = 16.25
 optimisation between [QCUT,QGAM] = [ 10.24, 20.48] = [ 29.35,117.42] Ry 
 Optimized for a Real-space Cutoff    1.51 Angstroem

   l    n(q)    QCUT    max X(q) W(low)/X(q) W(high)/X(q)  e(spline) 
   2      8    10.239    80.901    0.43E-03    0.67E-03    0.20E-06
   2      8    10.239    75.754    0.44E-03    0.68E-03    0.20E-06
   0      9    10.239    58.752    0.81E-04    0.41E-04    0.71E-07
   0      9    10.239    30.679    0.75E-04    0.39E-04    0.65E-07
   1      9    10.239    17.977    0.50E-04    0.16E-03    0.11E-06
   1      9    10.239    13.559    0.39E-04    0.13E-03    0.98E-07
 Optimization of the real space projectors (new method)

 maximal supplied QI-value         = 24.76
 optimisation between [QCUT,QGAM] = [ 10.15, 20.30] = [ 28.85,115.39] Ry 
 Optimized for a Real-space Cutoff    1.38 Angstroem

   l    n(q)    QCUT    max X(q) W(low)/X(q) W(high)/X(q)  e(spline) 
   0      8    10.150    20.381    0.22E-03    0.32E-03    0.29E-06
   0      8    10.150    15.268    0.23E-03    0.35E-03    0.30E-06
   1      8    10.150     5.964    0.46E-03    0.53E-03    0.21E-06
   1      8    10.150     5.382    0.38E-03    0.45E-03    0.19E-06
 Optimization of the real space projectors (new method)

 maximal supplied QI-value         = 24.76
 optimisation between [QCUT,QGAM] = [ 10.15, 20.30] = [ 28.85,115.39] Ry 
 Optimized for a Real-space Cutoff    1.38 Angstroem

   l    n(q)    QCUT    max X(q) W(low)/X(q) W(high)/X(q)  e(spline) 
   0      8    10.150    14.049    0.15E-03    0.22E-03    0.24E-06
   0      8    10.150     8.945    0.21E-03    0.31E-03    0.30E-06
   1      8    10.150     7.086    0.42E-03    0.48E-03    0.23E-06
   1      8    10.150     6.747    0.37E-03    0.43E-03    0.21E-06
  PAW_PBE Fe 06Sep2000                  :
 energy of atom  1       EATOM= -594.3153
 kinetic energy error for atom=    0.0088 (will be added to EATOM!!)
  PAW_PBE O 08Apr2002                   :
 energy of atom  2       EATOM= -432.3788
 kinetic energy error for atom=    0.1156 (will be added to EATOM!!)
  PAW_PBE F 08Apr2002                   :
 energy of atom  3       EATOM= -659.6475
 kinetic energy error for atom=    0.1978 (will be added to EATOM!!)
 
 
 POSCAR: Fe16 O4 F32                             
  positions in direct lattice
  No initial velocities read in
 exchange correlation table for  LEXCH =        8
   RHO(1)=    0.500       N(1)  =     2000
   RHO(2)=  100.500       N(2)  =     4000
 


--------------------------------------------------------------------------------------------------------


 ion  position               nearest neighbor table
   1  0.164  0.484  0.180-  21 1.90  34 1.90  45 1.91  29 2.05  26 2.08  42 2.16   5 3.10
   2  0.164  0.516  0.680-  22 1.90  33 1.90  46 1.91  30 2.05  25 2.08  41 2.16   6 3.10
   3  0.664  0.984  0.180-  23 1.90  36 1.90  47 1.91  31 2.05  28 2.08  44 2.16   7 3.10
   4  0.664  0.016  0.680-  24 1.90  35 1.90  48 1.91  32 2.05  27 2.08  43 2.16   8 3.10
   5  0.175  0.473  0.973-  17 1.82  38 1.90  52 1.97  42 2.15  29 2.16  26 2.24  14 3.03   1 3.10

   6  0.175  0.527  0.473-  18 1.82  37 1.90  51 1.97  41 2.15  30 2.16  25 2.24  13 3.03   2 3.10

   7  0.675  0.973  0.973-  19 1.82  40 1.90  50 1.97  44 2.15  31 2.16  28 2.24  16 3.03   3 3.10

   8  0.675  0.027  0.473-  20 1.82  39 1.90  49 1.97  43 2.15  32 2.16  27 2.24  15 3.03   4 3.10

   9  0.332  0.029  0.822-  17 2.01  24 2.08  33 2.09  46 2.13  50 2.29  38 2.38  14 2.92
  10  0.332  0.971  0.322-  18 2.01  23 2.08  34 2.09  45 2.13  49 2.29  37 2.38  13 2.92
  11  0.832  0.529  0.822-  19 2.01  22 2.08  35 2.09  48 2.13  52 2.29  40 2.38  16 2.92
  12  0.832  0.471  0.322-  20 2.01  21 2.08  36 2.09  47 2.13  51 2.29  39 2.38  15 2.92
  13  0.334  0.004  0.517-  18 2.01  41 2.09  27 2.11  30 2.14  49 2.17  37 2.21  10 2.92   6 3.03

  14  0.334  0.996  0.017-  17 2.01  42 2.09  28 2.11  29 2.14  50 2.17  38 2.21   9 2.92   5 3.03

  15  0.834  0.504  0.517-  20 2.01  43 2.09  25 2.11  32 2.14  51 2.17  39 2.21  12 2.92   8 3.03

  16  0.834  0.496  0.017-  19 2.01  44 2.09  26 2.11  31 2.14  52 2.17  40 2.21  11 2.92   7 3.03

  17  0.309  0.267  0.925-   5 1.82  14 2.01   9 2.01
  18  0.309  0.733  0.425-   6 1.82  13 2.01  10 2.01
  19  0.809  0.767  0.925-   7 1.82  16 2.01  11 2.01
  20  0.809  0.233  0.425-   8 1.82  15 2.01  12 2.01
  21  0.004  0.369  0.244-   1 1.90  12 2.08
  22  0.004  0.631  0.744-   2 1.90  11 2.08
  23  0.504  0.869  0.244-   3 1.90  10 2.08
  24  0.504  0.131  0.744-   4 1.90   9 2.08
  25  0.026  0.395  0.579-   2 2.08  15 2.11   6 2.24
  26  0.026  0.605  0.079-   1 2.08  16 2.11   5 2.24
  27  0.526  0.895  0.579-   4 2.08  13 2.11   8 2.24
  28  0.526  0.105  0.079-   3 2.08  14 2.11   7 2.24
  29  0.176  0.214  0.084-   1 2.05  14 2.14   5 2.16
  30  0.176  0.786  0.584-   2 2.05  13 2.14   6 2.16
  31  0.676  0.714  0.084-   3 2.05  16 2.14   7 2.16
  32  0.676  0.286  0.584-   4 2.05  15 2.14   8 2.16
  33  0.181  0.203  0.739-   2 1.90   9 2.09
  34  0.181  0.797  0.239-   1 1.90  10 2.09
  35  0.681  0.703  0.739-   4 1.90  11 2.09
  36  0.681  0.297  0.239-   3 1.90  12 2.09
  37  0.189  0.202  0.424-   6 1.90  13 2.21  10 2.38
  38  0.189  0.798  0.924-   5 1.90  14 2.21   9 2.38
  39  0.689  0.702  0.424-   8 1.90  15 2.21  12 2.38
  40  0.689  0.298  0.924-   7 1.90  16 2.21  11 2.38
  41  0.293  0.347  0.578-  13 2.09   6 2.15   2 2.16
  42  0.293  0.653  0.078-  14 2.09   5 2.15   1 2.16
  43  0.793  0.847  0.578-  15 2.09   8 2.15   4 2.16
  44  0.793  0.153  0.078-  16 2.09   7 2.15   3 2.16
  45  0.303  0.306  0.248-   1 1.91  10 2.13
  46  0.303  0.694  0.748-   2 1.91   9 2.13
  47  0.803  0.806  0.248-   3 1.91  12 2.13
  48  0.803  0.194  0.748-   4 1.91  11 2.13
  49  0.491  0.135  0.423-   8 1.97  13 2.17  10 2.29
  50  0.491  0.865  0.923-   7 1.97  14 2.17   9 2.29
  51  0.991  0.635  0.423-   6 1.97  15 2.17  12 2.29
  52  0.991  0.365  0.923-   5 1.97  16 2.17  11 2.29
 

IMPORTANT INFORMATION: All symmetrisations will be switched off!
NOSYMM: (Re-)initialisation of all symmetry stuff for point group C_1.

 
 
 KPOINTS: Automatic mesh                          

Automatic generation of k-mesh.
Space group operators:
 irot       det(A)        alpha          n_x          n_y          n_z        tau_x        tau_y        tau_z
    1     1.000000     0.000000     1.000000     0.000000     0.000000     0.000000     0.000000     0.000000
 
 Subroutine IBZKPT returns following result:
 ===========================================
 
 Found      8 irreducible k-points:
 
 Following reciprocal coordinates:
            Coordinates               Weight
  0.000000  0.000000  0.000000      1.000000
  0.500000  0.000000  0.000000      1.000000
  0.000000  0.500000  0.000000      1.000000
  0.500000  0.500000  0.000000      1.000000
  0.000000  0.000000  0.500000      1.000000
  0.500000  0.000000  0.500000      1.000000
  0.000000  0.500000  0.500000      1.000000
  0.500000  0.500000  0.500000      1.000000
 
 Following cartesian coordinates:
            Coordinates               Weight
  0.000000  0.000000  0.000000      1.000000
  0.053185  0.000000  0.000000      1.000000
  0.000000  0.093293  0.000000      1.000000
  0.053185  0.093293  0.000000      1.000000
  0.000299  0.000000  0.033432      1.000000
  0.053484  0.000000  0.033432      1.000000
  0.000299  0.093293  0.033432      1.000000
  0.053484  0.093293  0.033432      1.000000
 


--------------------------------------------------------------------------------------------------------




 Dimension of arrays:
   k-points           NKPTS =      8   k-points in BZ     NKDIM =      8   number of bands    NBANDS=    225
   number of dos      NEDOS =    301   number of ions     NIONS =     52
   non local maximal  LDIM  =      6   non local SUM 2l+1 LMDIM =     18
   total plane-waves  NPLWV = 107520
   max r-space proj   IRMAX =   2101   max aug-charges    IRDMAX=   5282
   dimension x,y,z NGX =    48 NGY =   28 NGZ =   80
   dimension x,y,z NGXF=    96 NGYF=   56 NGZF=  160
   support grid    NGXF=    96 NGYF=   56 NGZF=  160
   ions per type =              16   4  32
 NGX,Y,Z   is equivalent  to a cutoff of   8.49,  8.69,  8.89 a.u.
 NGXF,Y,Z  is equivalent  to a cutoff of  16.98, 17.37, 17.79 a.u.


 I would recommend the setting:
   dimension x,y,z NGX =    46 NGY =   26 NGZ =   73
 SYSTEM =  tssm                                    
 POSCAR =  Fe16 O4 F32                             

 Startparameter for this run:
   NWRITE =      2    write-flag & timer
   PREC   = normal    normal or accurate (medium, high low for compatibility)
   ISTART =      0    job   : 0-new  1-cont  2-samecut
   ICHARG =      2    charge: 1-file 2-atom 10-const
   ISPIN  =      1    spin polarized calculation?
   LNONCOLLINEAR =      F non collinear calculations
   LSORBIT =      F    spin-orbit coupling
   INIWAV =      1    electr: 0-lowe 1-rand  2-diag
   LASPH  =      F    aspherical Exc in radial PAW
   METAGGA=      F    non-selfconsistent MetaGGA calc.

 Electronic Relaxation 1
   ENCUT  =  400.0 eV  29.40 Ry    5.42 a.u.  15.33  8.74 24.39*2*pi/ulx,y,z
   ENINI  =  400.0     initial cutoff
   ENAUG  =  613.6 eV  augmentation charge cutoff
   NELM   =    300;   NELMIN=  2; NELMDL=-12     # of ELM steps 
   EDIFF  = 0.1E-03   stopping-criterion for ELM
   LREAL  =      T    real-space projection
   NLSPLINE    = F    spline interpolate recip. space projectors
   LCOMPAT=      F    compatible to vasp.4.4
   GGA_COMPAT  = T    GGA compatible to vasp.4.4-vasp.4.6
   LMAXPAW     = -100 max onsite density
   LMAXMIX     =    2 max onsite mixed and CHGCAR
   VOSKOWN=      0    Vosko Wilk Nusair interpolation
   ROPT   =   -0.00050  -0.00050  -0.00050
 Ionic relaxation
   EDIFFG = 0.1E-02   stopping-criterion for IOM
   NSW    =      1    number of steps for IOM
   NBLOCK =      1;   KBLOCK =      1    inner block; outer block 
   IBRION =      1    ionic relax: 0-MD 1-quasi-New 2-CG
   NFREE  =      0    steps in history (QN), initial steepest desc. (CG)
   ISIF   =      2    stress and relaxation
   IWAVPR =     11    prediction:  0-non 1-charg 2-wave 3-comb
   ISYM   =      0    0-nonsym 1-usesym 2-fastsym
   LCORR  =      T    Harris-Foulkes like correction to forces

   POTIM  = 0.5000    time-step for ionic-motion
   TEIN   =    0.0    initial temperature
   TEBEG  =    0.0;   TEEND  =   0.0 temperature during run
   SMASS  =  -3.00    Nose mass-parameter (am)
   estimated Nose-frequenzy (Omega)   =  0.10E-29 period in steps =****** mass=  -0.202E-26a.u.
   SCALEE = 1.0000    scale energy and forces
   NPACO  =    256;   APACO  = 16.0  distance and # of slots for P.C.
   PSTRESS=    0.0 pullay stress

  Mass of Ions in am
   POMASS =  55.85 16.00 19.00
  Ionic Valenz
   ZVAL   =   8.00  6.00  7.00
  Atomic Wigner-Seitz radii
   RWIGS  =  -1.00 -1.00 -1.00
  virtual crystal weights 
   VCA    =   1.00  1.00  1.00
   NELECT =     376.0000    total number of electrons
   NUPDOWN=      -1.0000    fix difference up-down

 DOS related values:
   EMIN   =  10.00;   EMAX   =-10.00  energy-range for DOS
   EFERMI =   0.00
   ISMEAR =     1;   SIGMA  =   0.20  broadening in eV -4-tet -1-fermi 0-gaus

 Electronic relaxation 2 (details)
   IALGO  =     48    algorithm
   LDIAG  =      T    sub-space diagonalisation (order eigenvalues)
   LSUBROT=      F    optimize rotation matrix (better conditioning)
   TURBO    =      0    0=normal 1=particle mesh
   IRESTART =      0    0=no restart 2=restart with 2 vectors
   NREBOOT  =      0    no. of reboots
   NMIN     =      0    reboot dimension
   EREF     =   0.00    reference energy to select bands
   IMIX   =      4    mixing-type and parameters
     AMIX     =   0.40;   BMIX     =  1.00
     AMIX_MAG =   1.60;   BMIX_MAG =  1.00
     AMIN     =   0.01
     WC   =   100.;   INIMIX=   1;  MIXPRE=   1;  MAXMIX= -45

 Intra band minimization:
   WEIMIN = 0.0010     energy-eigenvalue tresh-hold
   EBREAK =  0.11E-06  absolut break condition
   DEPER  =   0.30     relativ break condition  

   TIME   =   0.40     timestep for ELM

  volume/ion in A,a.u.               =      14.49        97.79
  Fermi-wavevector in a.u.,A,eV,Ry     =   1.298477  2.453765 22.939992  1.686042
  Thomas-Fermi vector in A             =   2.429803
 
 Write flags
   LWAVE  =      F    write WAVECAR
   LCHARG =      T    write CHGCAR
   LVTOT  =      F    write LOCPOT, total local potential
   LVHAR  =      F    write LOCPOT, Hartree potential only
   LELF   =      F    write electronic localiz. function (ELF)
   LORBIT =      0    0 simple, 1 ext, 2 COOP (PROOUT)


 Dipole corrections
   LMONO  =      F    monopole corrections only (constant potential shift)
   LDIPOL =      F    correct potential (dipole corrections)
   IDIPOL =      0    1-x, 2-y, 3-z, 4-all directions 
   EPSILON=  1.0000000 bulk dielectric constant

 Exchange correlation treatment:
   GGA     =    --    GGA type
   LEXCH   =     8    internal setting for exchange type
   VOSKOWN=      0    Vosko Wilk Nusair interpolation
   LHFCALC =     F    Hartree Fock is set to
   LHFONE  =     F    Hartree Fock one center treatment
   AEXX    =    0.0000 exact exchange contribution

 Linear response parameters
   LEPSILON=     F    determine dielectric tensor
   LRPA    =     F    only Hartree local field effects (RPA)
   LNABLA  =     F    use nabla operator in PAW spheres
   LVEL    =     F    velocity operator in full k-point grid
   LINTERFAST=   F  fast interpolation
   KINTER  =     0    interpolate to denser k-point grid
   CSHIFT  =0.1000    complex shift for real part using Kramers Kronig
   OMEGAMAX=  -1.0    maximum frequency
   DEG_THRESHOLD= 0.2000000E-02 threshold for treating states as degnerate
   RTIME   =    0.100 relaxation time in fs

 Orbital magnetization related:
   ORBITALMAG=     F  switch on orbital magnetization
   LCHIMAG   =     F  perturbation theory with respect to B field
   DQ        =  0.001000  dq finite difference perturbation B field



--------------------------------------------------------------------------------------------------------


 quasi-Newton-method for relaxation of ions
 charge density and potential will be updated during run
 non-spin polarized calculation
 RMM-DIIS sequential band-by-band
 perform sub-space diagonalisation
    before iterative eigenvector-optimisation
 modified Broyden-mixing scheme, WC =      100.0
 initial mixing is a Kerker type mixing with AMIX =  0.4000 and BMIX =      1.0000
 Hartree-type preconditioning will be used
 using additional bands           37
 real space projection scheme for non local part
 use partial core corrections
 calculate Harris-corrections to forces 
   (improved forces if not selfconsistent)
 use gradient corrections 
 use of overlap-Matrix (Vanderbilt PP)
 Methfessel and Paxton  Order N= 1 SIGMA  =   0.20


--------------------------------------------------------------------------------------------------------


  energy-cutoff  :      400.00
  volume of cell :      753.55
      direct lattice vectors                 reciprocal lattice vectors
     9.401191000  0.000000000 -0.084129000     0.106369501  0.000000000  0.000000000
     0.000000000  5.359467000  0.000000000     0.000000000  0.186585718  0.000000000
     0.000000000  0.000000000 14.955651000     0.000598353  0.000000000  0.066864358

  length of vectors
     9.401567418  5.359467000 14.955651000     0.106369501  0.186585718  0.066867035


 
 k-points in units of 2pi/SCALE and weight: Automatic mesh                          
   0.00000000  0.00000000  0.00000000       0.125
   0.05318475  0.00000000  0.00000000       0.125
   0.00000000  0.09329286  0.00000000       0.125
   0.05318475  0.09329286  0.00000000       0.125
   0.00029918  0.00000000  0.03343218       0.125
   0.05348393  0.00000000  0.03343218       0.125
   0.00029918  0.09329286  0.03343218       0.125
   0.05348393  0.09329286  0.03343218       0.125
 
 k-points in reciprocal lattice and weights: Automatic mesh                          
   0.00000000  0.00000000  0.00000000       0.125
   0.50000000  0.00000000  0.00000000       0.125
   0.00000000  0.50000000  0.00000000       0.125
   0.50000000  0.50000000  0.00000000       0.125
   0.00000000  0.00000000  0.50000000       0.125
   0.50000000  0.00000000  0.50000000       0.125
   0.00000000  0.50000000  0.50000000       0.125
   0.50000000  0.50000000  0.50000000       0.125
 
 position of ions in fractional coordinates (direct lattice) 
   0.16411200  0.48397600  0.17995900
   0.16411200  0.51602400  0.67995900
   0.66411200  0.98397600  0.17995900
   0.66411200  0.01602400  0.67995900
   0.17533200  0.47285200  0.97303200
   0.17533200  0.52714800  0.47303200
   0.67533200  0.97285200  0.97303200
   0.67533200  0.02714800  0.47303200
   0.33162900  0.02941400  0.82240100
   0.33162900  0.97058600  0.32240100
   0.83162900  0.52941400  0.82240100
   0.83162900  0.47058600  0.32240100
   0.33361900  0.00432000  0.51711500
   0.33361900  0.99568000  0.01711500
   0.83361900  0.50432000  0.51711500
   0.83361900  0.49568000  0.01711500
   0.30926400  0.26740800  0.92544800
   0.30926400  0.73259200  0.42544800
   0.80926400  0.76740800  0.92544800
   0.80926400  0.23259200  0.42544800
   0.00386100  0.36884200  0.24394900
   0.00386100  0.63115800  0.74394900
   0.50386100  0.86884200  0.24394900
   0.50386100  0.13115800  0.74394900
   0.02591400  0.39537700  0.57915900
   0.02591400  0.60462300  0.07915900
   0.52591400  0.89537700  0.57915900
   0.52591400  0.10462300  0.07915900
   0.17611800  0.21417000  0.08350500
   0.17611800  0.78583000  0.58350500
   0.67611800  0.71417000  0.08350500
   0.67611800  0.28583000  0.58350500
   0.18147400  0.20344500  0.73945400
   0.18147400  0.79655500  0.23945400
   0.68147400  0.70344500  0.73945400
   0.68147400  0.29655500  0.23945400
   0.18900300  0.20186000  0.42366300
   0.18900300  0.79814000  0.92366300
   0.68900300  0.70186000  0.42366300
   0.68900300  0.29814000  0.92366300
   0.29347700  0.34686800  0.57827500
   0.29347700  0.65313200  0.07827500
   0.79347700  0.84686800  0.57827500
   0.79347700  0.15313200  0.07827500
   0.30310600  0.30561100  0.24801900
   0.30310600  0.69438900  0.74801900
   0.80310600  0.80561100  0.24801900
   0.80310600  0.19438900  0.74801900
   0.49071400  0.13464800  0.42295500
   0.49071400  0.86535200  0.92295500
   0.99071400  0.63464800  0.42295500
   0.99071400  0.36535200  0.92295500
 
 position of ions in cartesian coordinates  (Angst):
   1.54284826  2.59385340  2.67759742
   1.54284826  2.76561360 10.15542292
   6.24344376  5.27358690  2.63553292
   6.24344376  0.08588010 10.11335842
   1.64832962  2.53423469 14.53757650
   1.64832962  2.82523231  7.05975100
   6.34892512  5.21396819 14.49551200
   6.34892512  0.14549881  7.01768650
   3.11770757  0.15764336 12.27164272
   3.11770757  5.20182364  4.79381722
   7.81830307  2.83737686 12.22957822
   7.81830307  2.52209014  4.75175272
   3.13641594  0.02315290  7.70572443
   3.13641594  5.33631410  0.22789893
   7.83701144  2.70288640  7.66365993
   7.83701144  2.65658060  0.18583443
   2.90744993  1.43316435 13.81465924
   2.90744993  3.92630265  6.33683374
   7.60804543  4.11289785 13.77259474
   7.60804543  1.24656915  6.29476924
   0.03629800  1.97679653  3.64809128
   0.03629800  3.38267047 11.12591678
   4.73689350  4.65653003  3.60602678
   4.73689350  0.70293697 11.08385228
   0.24362246  2.11900998  8.65951976
   0.24362246  3.24045702  1.18169426
   4.94421796  4.79874348  8.61745526
   4.94421796  0.56072352  1.13962976
   1.65571896  1.14783705  1.23405501
   1.65571896  4.21162995  8.71188051
   6.35631446  3.82757055  1.19199051
   6.35631446  1.53189645  8.66981601
   1.70607174  1.09035676 11.04374873
   1.70607174  4.26911024  3.56592323
   6.40666724  3.77009026 11.00168423
   6.40666724  1.58937674  3.52385873
   1.77685330  1.08186201  6.32025534
   1.77685330  4.27760499 13.79808084
   6.47744880  3.76159551  6.27819084
   6.47744880  1.59787149 13.75601634
   2.75903333  1.85902760  8.62378916
   2.75903333  3.50043940  1.14596366
   7.45962883  4.53876110  8.58172466
   7.45962883  0.82070590  1.10389916
   2.84955740  1.63791207  3.68378560
   2.84955740  3.72155493 11.16161110
   7.55015290  4.31764557  3.64172110
   7.55015290  1.04182143 11.11954660
   4.61329604  0.72164151  6.28428409
   4.61329604  4.63782549 13.76210959
   9.31389154  3.40137501  6.24221959
   9.31389154  1.95809199 13.72004509
 


--------------------------------------------------------------------------------------------------------


 k-point  1 :   0.0000 0.0000 0.0000  plane waves:   13693
 k-point  2 :   0.5000 0.0000 0.0000  plane waves:   13694
 k-point  3 :   0.0000 0.5000 0.0000  plane waves:   13710
 k-point  4 :   0.5000 0.5000 0.0000  plane waves:   13696
 k-point  5 :   0.0000 0.0000 0.5000  plane waves:   13722
 k-point  6 :   0.5000 0.0000 0.5000  plane waves:   13706
 k-point  7 :   0.0000 0.5000 0.5000  plane waves:   13672
 k-point  8 :   0.5000 0.5000 0.5000  plane waves:   13704

 maximum and minimum number of plane-waves per node :     13722    13672

 maximum number of plane-waves:     13722
 maximum index in each direction: 
   IXMAX=   15   IYMAX=    8   IZMAX=   24
   IXMIN=  -15   IYMIN=   -9   IZMIN=  -24

 WARNING: aliasing errors must be expected set NGX to  62 to avoid them
 WARNING: aliasing errors must be expected set NGY to  36 to avoid them
 WARNING: aliasing errors must be expected set NGZ to  98 to avoid them
 aliasing errors are usually negligible using standard VASP settings
 and one can safely disregard these warnings

 serial   3D FFT for wavefunctions
 parallel 3D FFT for charge:
    minimum data exchange during FFTs selected (reduces bandwidth)


 total amount of memory used by VASP on root node   542859. kBytes
========================================================================

   base      :      30000. kBytes
   nonlr-proj:      10757. kBytes
   fftplans  :      29624. kBytes
   grid      :      59888. kBytes
   one-center:        808. kBytes
   wavefun   :     411782. kBytes
 
     INWAV:  cpu time    0.00: real time    0.00
 Broyden mixing: mesh for mixing (old mesh)
   NGX = 31   NGY = 17   NGZ = 49
  (NGX  = 96   NGY  = 56   NGZ  =160)
  gives a total of  25823 points

 initial charge density was supplied:
 charge density of overlapping atoms calculated
 number of electron     376.0000000 magnetization 
 keeping initial charge density in first step


--------------------------------------------------------------------------------------------------------


 Maximum index for non-local projection operator         2005
 Maximum index for augmentation-charges         4936 (set IRDMAX)


--------------------------------------------------------------------------------------------------------


 First call to EWALD:  gamma=   0.195
 Maximum number of real-space cells 3x 4x 2
 Maximum number of reciprocal cells 3x 2x 4

 FEWALD executed in parallel
    FEWALD:  cpu time    0.01: real time    0.01


----------------------------------------- Iteration    1(   1)  ---------------------------------------


    POTLOK:  cpu time    0.28: real time    0.38
    SETDIJ:  cpu time    0.06: real time    0.12
    EDDIAG:  cpu time    6.12: real time   12.27
  RMM-DIIS:  cpu time   11.20: real time   20.08
    ORTHCH:  cpu time    1.89: real time    3.46
       DOS:  cpu time    0.01: real time    0.02
    --------------------------------------------
      LOOP:  cpu time   19.55: real time   36.32

 eigenvalue-minimisations  :  1800
 total energy-change (2. order) : 0.4807344E+04  (-0.1397175E+05)
 number of electron     376.0000000 magnetization 
 augmentation part      376.0000000 magnetization 

 Free energy of the ion-electron system (eV)
  ---------------------------------------------------
  alpha Z        PSCENC =      1136.56246079
  Ewald energy   TEWEN  =    -19713.34295847
  -Hartree energ DENC   =    -12176.76064537
  -exchange      EXHF   =         0.00000000
  -V(xc)+E(xc)   XCENC  =      1336.14060116
  PAW double counting   =     27518.38149996   -27812.06485035
  entropy T*S    EENTRO =        -0.02654643
  eigenvalues    EBANDS =      2178.10689094
  atomic energy  EATOM  =     32340.34786160
  ---------------------------------------------------
  free energy    TOTEN  =      4807.34431382 eV

  energy without entropy =     4807.37086026  energy(sigma->0) =     4807.35316263


--------------------------------------------------------------------------------------------------------




----------------------------------------- Iteration    1(   2)  ---------------------------------------


    EDDIAG:  cpu time    6.13: real time   11.16
  RMM-DIIS:  cpu time   12.00: real time   23.10
    ORTHCH:  cpu time    1.91: real time    3.82
       DOS:  cpu time    0.01: real time    0.01
    --------------------------------------------
      LOOP:  cpu time   20.05: real time   38.09

 eigenvalue-minimisations  :  1800
 total energy-change (2. order) :-0.3201305E+04  (-0.3656997E+04)
 number of electron     376.0000000 magnetization 
 augmentation part      376.0000000 magnetization 

 Free energy of the ion-electron system (eV)
  ---------------------------------------------------
  alpha Z        PSCENC =      1136.56246079
  Ewald energy   TEWEN  =    -19713.34295847
  -Hartree energ DENC   =    -12176.76064537
  -exchange      EXHF   =         0.00000000
  -V(xc)+E(xc)   XCENC  =      1336.14060116
  PAW double counting   =     27518.38149996   -27812.06485035
  entropy T*S    EENTRO =        -0.02602791
  eigenvalues    EBANDS =     -1023.19911689
  atomic energy  EATOM  =     32340.34786160
  ---------------------------------------------------
  free energy    TOTEN  =      1606.03882452 eV

  energy without entropy =     1606.06485243  energy(sigma->0) =     1606.04750049


--------------------------------------------------------------------------------------------------------




----------------------------------------- Iteration    1(   3)  ---------------------------------------


    EDDIAG:  cpu time    6.42: real time   12.85
  RMM-DIIS:  cpu time   12.23: real time   24.46
    ORTHCH:  cpu time    1.91: real time    3.84
       DOS:  cpu time    0.01: real time    0.01
    --------------------------------------------
      LOOP:  cpu time   20.57: real time   41.15

 eigenvalue-minimisations  :  1800
 total energy-change (2. order) :-0.1043433E+04  (-0.1059471E+04)
 number of electron     376.0000000 magnetization 
 augmentation part      376.0000000 magnetization 

 Free energy of the ion-electron system (eV)
  ---------------------------------------------------
  alpha Z        PSCENC =      1136.56246079
  Ewald energy   TEWEN  =    -19713.34295847
  -Hartree energ DENC   =    -12176.76064537
  -exchange      EXHF   =         0.00000000
  -V(xc)+E(xc)   XCENC  =      1336.14060116
  PAW double counting   =     27518.38149996   -27812.06485035
  entropy T*S    EENTRO =         0.22614255
  eigenvalues    EBANDS =     -2066.88409854
  atomic energy  EATOM  =     32340.34786160
  ---------------------------------------------------
  free energy    TOTEN  =       562.60601332 eV

  energy without entropy =      562.37987077  energy(sigma->0) =      562.53063247


--------------------------------------------------------------------------------------------------------




----------------------------------------- Iteration    1(   4)  ---------------------------------------


    EDDIAG:  cpu time    6.18: real time   11.35
  RMM-DIIS:  cpu time   12.09: real time   23.76
    ORTHCH:  cpu time    1.93: real time    3.85
       DOS:  cpu time    0.01: real time    0.02
    --------------------------------------------
      LOOP:  cpu time   20.20: real time   38.98

 eigenvalue-minimisations  :  1800
 total energy-change (2. order) :-0.4234824E+03  (-0.3694294E+03)
 number of electron     376.0000000 magnetization 
 augmentation part      376.0000000 magnetization 

 Free energy of the ion-electron system (eV)
  ---------------------------------------------------
  alpha Z        PSCENC =      1136.56246079
  Ewald energy   TEWEN  =    -19713.34295847
  -Hartree energ DENC   =    -12176.76064537
  -exchange      EXHF   =         0.00000000
  -V(xc)+E(xc)   XCENC  =      1336.14060116
  PAW double counting   =     27518.38149996   -27812.06485035
  entropy T*S    EENTRO =         0.04866244
  eigenvalues    EBANDS =     -2490.18906441
  atomic energy  EATOM  =     32340.34786160
  ---------------------------------------------------
  free energy    TOTEN  =       139.12356735 eV

  energy without entropy =      139.07490490  energy(sigma->0) =      139.10734653


--------------------------------------------------------------------------------------------------------




----------------------------------------- Iteration    1(   5)  ---------------------------------------


    EDDIAG:  cpu time    6.36: real time   12.72
  RMM-DIIS:  cpu time   12.09: real time   24.02
    ORTHCH:  cpu time    1.94: real time    3.89
       DOS:  cpu time    0.01: real time    0.02
    --------------------------------------------
      LOOP:  cpu time   20.39: real time   40.64

 eigenvalue-minimisations  :  1800
 total energy-change (2. order) :-0.2518266E+03  (-0.1995844E+03)
 number of electron     376.0000000 magnetization 
 augmentation part      376.0000000 magnetization 

 Free energy of the ion-electron system (eV)
  ---------------------------------------------------
  alpha Z        PSCENC =      1136.56246079
  Ewald energy   TEWEN  =    -19713.34295847
  -Hartree energ DENC   =    -12176.76064537
  -exchange      EXHF   =         0.00000000
  -V(xc)+E(xc)   XCENC  =      1336.14060116
  PAW double counting   =     27518.38149996   -27812.06485035
  entropy T*S    EENTRO =         0.06022477
  eigenvalues    EBANDS =     -2742.02722080
  atomic energy  EATOM  =     32340.34786160
  ---------------------------------------------------
  free energy    TOTEN  =      -112.70302671 eV

  energy without entropy =     -112.76325148  energy(sigma->0) =     -112.72310164


--------------------------------------------------------------------------------------------------------




----------------------------------------- Iteration    1(   6)  ---------------------------------------


    EDDIAG:  cpu time    6.24: real time   12.27
  RMM-DIIS:  cpu time   11.93: real time   23.67
    ORTHCH:  cpu time    1.94: real time    3.88
       DOS:  cpu time    0.01: real time    0.02
    --------------------------------------------
      LOOP:  cpu time   20.11: real time   39.84

 eigenvalue-minimisations  :  1800
 total energy-change (2. order) :-0.1176524E+03  (-0.9051639E+02)
 number of electron     376.0000000 magnetization 
 augmentation part      376.0000000 magnetization 

 Free energy of the ion-electron system (eV)
  ---------------------------------------------------
  alpha Z        PSCENC =      1136.56246079
  Ewald energy   TEWEN  =    -19713.34295847
  -Hartree energ DENC   =    -12176.76064537
  -exchange      EXHF   =         0.00000000
  -V(xc)+E(xc)   XCENC  =      1336.14060116
  PAW double counting   =     27518.38149996   -27812.06485035
  entropy T*S    EENTRO =         0.08635978
  eigenvalues    EBANDS =     -2859.70576106
  atomic energy  EATOM  =     32340.34786160
  ---------------------------------------------------
  free energy    TOTEN  =      -230.35543197 eV

  energy without entropy =     -230.44179175  energy(sigma->0) =     -230.38421856


--------------------------------------------------------------------------------------------------------




----------------------------------------- Iteration    1(   7)  ---------------------------------------


    EDDIAG:  cpu time    6.26: real time   12.19
  RMM-DIIS:  cpu time   12.31: real time   24.48
    ORTHCH:  cpu time    1.91: real time    3.32
       DOS:  cpu time    0.01: real time    0.01
    --------------------------------------------
      LOOP:  cpu time   20.49: real time   40.00

 eigenvalue-minimisations  :  1800
 total energy-change (2. order) :-0.5892893E+02  (-0.4757036E+02)
 number of electron     376.0000000 magnetization 
 augmentation part      376.0000000 magnetization 

 Free energy of the ion-electron system (eV)
  ---------------------------------------------------
  alpha Z        PSCENC =      1136.56246079
  Ewald energy   TEWEN  =    -19713.34295847
  -Hartree energ DENC   =    -12176.76064537
  -exchange      EXHF   =         0.00000000
  -V(xc)+E(xc)   XCENC  =      1336.14060116
  PAW double counting   =     27518.38149996   -27812.06485035
  entropy T*S    EENTRO =         0.08277481
  eigenvalues    EBANDS =     -2918.63110971
  atomic energy  EATOM  =     32340.34786160
  ---------------------------------------------------
  free energy    TOTEN  =      -289.28436558 eV

  energy without entropy =     -289.36714039  energy(sigma->0) =     -289.31195719


--------------------------------------------------------------------------------------------------------




----------------------------------------- Iteration    1(   8)  ---------------------------------------


    EDDIAG:  cpu time    6.62: real time   13.25
  RMM-DIIS:  cpu time   12.84: real time   25.55
    ORTHCH:  cpu time    1.94: real time    3.90
       DOS:  cpu time    0.01: real time    0.01
    --------------------------------------------
      LOOP:  cpu time   21.41: real time   42.71

 eigenvalue-minimisations  :  1800
 total energy-change (2. order) :-0.2374584E+02  (-0.1970951E+02)
 number of electron     376.0000000 magnetization 
 augmentation part      376.0000000 magnetization 

 Free energy of the ion-electron system (eV)
  ---------------------------------------------------
  alpha Z        PSCENC =      1136.56246079
  Ewald energy   TEWEN  =    -19713.34295847
  -Hartree energ DENC   =    -12176.76064537
  -exchange      EXHF   =         0.00000000
  -V(xc)+E(xc)   XCENC  =      1336.14060116
  PAW double counting   =     27518.38149996   -27812.06485035
  entropy T*S    EENTRO =         0.06400434
  eigenvalues    EBANDS =     -2942.35817474
  atomic energy  EATOM  =     32340.34786160
  ---------------------------------------------------
  free energy    TOTEN  =      -313.03020109 eV

  energy without entropy =     -313.09420542  energy(sigma->0) =     -313.05153586


--------------------------------------------------------------------------------------------------------




----------------------------------------- Iteration    1(   9)  ---------------------------------------


    EDDIAG:  cpu time    6.43: real time   12.86
  RMM-DIIS:  cpu time   37.08: real time   71.86
    ORTHCH:  cpu time    1.95: real time    3.91
       DOS:  cpu time    0.01: real time    0.02
    --------------------------------------------
      LOOP:  cpu time   45.47: real time   88.65

 eigenvalue-minimisations  :  5708
 total energy-change (2. order) :-0.2379409E+02  (-0.2186364E+02)
 number of electron     376.0000000 magnetization 
 augmentation part      376.0000000 magnetization 

 Free energy of the ion-electron system (eV)
  ---------------------------------------------------
  alpha Z        PSCENC =      1136.56246079
  Ewald energy   TEWEN  =    -19713.34295847
  -Hartree energ DENC   =    -12176.76064537
  -exchange      EXHF   =         0.00000000
  -V(xc)+E(xc)   XCENC  =      1336.14060116
  PAW double counting   =     27518.38149996   -27812.06485035
  entropy T*S    EENTRO =         0.02750109
  eigenvalues    EBANDS =     -2966.11576160
  atomic energy  EATOM  =     32340.34786160
  ---------------------------------------------------
  free energy    TOTEN  =      -336.82429120 eV

  energy without entropy =     -336.85179229  energy(sigma->0) =     -336.83345823


--------------------------------------------------------------------------------------------------------




----------------------------------------- Iteration    1(  10)  ---------------------------------------


    EDDIAG:  cpu time    6.38: real time    8.98
  RMM-DIIS:  cpu time   37.96: real time   67.34
    ORTHCH:  cpu time    2.00: real time    3.98
       DOS:  cpu time    0.01: real time    0.02
    --------------------------------------------
      LOOP:  cpu time   46.34: real time   80.31

 eigenvalue-minimisations  :  5694
 total energy-change (2. order) :-0.5286949E+00  (-0.9318989E+00)
 number of electron     376.0000000 magnetization 
 augmentation part      376.0000000 magnetization 

 Free energy of the ion-electron system (eV)
  ---------------------------------------------------
  alpha Z        PSCENC =      1136.56246079
  Ewald energy   TEWEN  =    -19713.34295847
  -Hartree energ DENC   =    -12176.76064537
  -exchange      EXHF   =         0.00000000
  -V(xc)+E(xc)   XCENC  =      1336.14060116
  PAW double counting   =     27518.38149996   -27812.06485035
  entropy T*S    EENTRO =         0.01899739
  eigenvalues    EBANDS =     -2966.63595277
  atomic energy  EATOM  =     32340.34786160
  ---------------------------------------------------
  free energy    TOTEN  =      -337.35298606 eV

  energy without entropy =     -337.37198345  energy(sigma->0) =     -337.35931853


--------------------------------------------------------------------------------------------------------




----------------------------------------- Iteration    1(  11)  ---------------------------------------


    EDDIAG:  cpu time    6.74: real time   12.95
  RMM-DIIS:  cpu time   35.93: real time   70.48
    ORTHCH:  cpu time    1.90: real time    3.79
       DOS:  cpu time    0.01: real time    0.01
    --------------------------------------------
      LOOP:  cpu time   44.57: real time   87.23

 eigenvalue-minimisations  :  5226
 total energy-change (2. order) :-0.4135012E+00  (-0.3435833E+00)
 number of electron     376.0000000 magnetization 
 augmentation part      376.0000000 magnetization 

 Free energy of the ion-electron system (eV)
  ---------------------------------------------------
  alpha Z        PSCENC =      1136.56246079
  Ewald energy   TEWEN  =    -19713.34295847
  -Hartree energ DENC   =    -12176.76064537
  -exchange      EXHF   =         0.00000000
  -V(xc)+E(xc)   XCENC  =      1336.14060116
  PAW double counting   =     27518.38149996   -27812.06485035
  entropy T*S    EENTRO =         0.01057879
  eigenvalues    EBANDS =     -2967.04103539
  atomic energy  EATOM  =     32340.34786160
  ---------------------------------------------------
  free energy    TOTEN  =      -337.76648728 eV

  energy without entropy =     -337.77706607  energy(sigma->0) =     -337.77001354


--------------------------------------------------------------------------------------------------------




----------------------------------------- Iteration    1(  12)  ---------------------------------------


    EDDIAG:  cpu time    6.14: real time   11.71
  RMM-DIIS:  cpu time   29.21: real time   56.97
    ORTHCH:  cpu time    1.89: real time    3.55
       DOS:  cpu time    0.01: real time    0.02
    CHARGE:  cpu time    1.99: real time    3.98
    MIXING:  cpu time    0.01: real time    0.02
    --------------------------------------------
      LOOP:  cpu time   39.25: real time   76.25

 eigenvalue-minimisations  :  4462
 total energy-change (2. order) :-0.1758604E+00  (-0.1551321E+00)
 number of electron     376.0000811 magnetization 
 augmentation part      105.8774401 magnetization 

 Broyden mixing:
  rms(total) = 0.60669E+01    rms(broyden)= 0.60545E+01
  rms(prec ) = 0.67724E+01
  weight for this iteration     100.00

 Free energy of the ion-electron system (eV)
  ---------------------------------------------------
  alpha Z        PSCENC =      1136.56246079
  Ewald energy   TEWEN  =    -19713.34295847
  -Hartree energ DENC   =    -12176.76064537
  -exchange      EXHF   =         0.00000000
  -V(xc)+E(xc)   XCENC  =      1336.14060116
  PAW double counting   =     27518.38149996   -27812.06485035
  entropy T*S    EENTRO =         0.00953104
  eigenvalues    EBANDS =     -2967.21584803
  atomic energy  EATOM  =     32340.34786160
  ---------------------------------------------------
  free energy    TOTEN  =      -337.94234768 eV

  energy without entropy =     -337.95187871  energy(sigma->0) =     -337.94552469


--------------------------------------------------------------------------------------------------------




----------------------------------------- Iteration    1(  13)  ---------------------------------------


    POTLOK:  cpu time    0.30: real time    0.60
    SETDIJ:  cpu time    0.06: real time    0.12
    EDDIAG:  cpu time    6.39: real time   11.68
  RMM-DIIS:  cpu time   28.04: real time   55.92
    ORTHCH:  cpu time    2.04: real time    4.07
       DOS:  cpu time    0.00: real time    0.02
    CHARGE:  cpu time    2.09: real time    4.17
    MIXING:  cpu time    0.01: real time    0.02
    --------------------------------------------
      LOOP:  cpu time   38.93: real time   76.59

 eigenvalue-minimisations  :  4100
 total energy-change (2. order) : 0.2252571E+02  (-0.4757869E+02)
 number of electron     376.0000862 magnetization 
 augmentation part      118.7900921 magnetization 

 Broyden mixing:
  rms(total) = 0.92337E+01    rms(broyden)= 0.92302E+01
  rms(prec ) = 0.10443E+02
  weight for this iteration     100.00

 eigenvalues of (default mixing * dielectric matrix)
  average eigenvalue GAMMA=   0.3118
  0.3118

 Free energy of the ion-electron system (eV)
  ---------------------------------------------------
  alpha Z        PSCENC =      1136.56246079
  Ewald energy   TEWEN  =    -19713.34295847
  -Hartree energ DENC   =    -12362.71256768
  -exchange      EXHF   =         0.00000000
  -V(xc)+E(xc)   XCENC  =      1358.65198593
  PAW double counting   =     29435.98280454   -29694.93539304
  entropy T*S    EENTRO =        -0.22123205
  eigenvalues    EBANDS =     -2815.74959440
  atomic energy  EATOM  =     32340.34786160
  ---------------------------------------------------
  free energy    TOTEN  =      -315.41663277 eV

  energy without entropy =     -315.19540072  energy(sigma->0) =     -315.34288875


--------------------------------------------------------------------------------------------------------




----------------------------------------- Iteration    1(  14)  ---------------------------------------


    POTLOK:  cpu time    0.36: real time    0.73
    SETDIJ:  cpu time    0.06: real time    0.12
    EDDIAG:  cpu time    6.99: real time   13.98
  RMM-DIIS:  cpu time   31.53: real time   54.14
    ORTHCH:  cpu time    1.94: real time    3.88
       DOS:  cpu time    0.01: real time    0.02
    CHARGE:  cpu time    2.02: real time    4.04
    MIXING:  cpu time    0.01: real time    0.03
    --------------------------------------------
      LOOP:  cpu time   42.92: real time   76.92

 eigenvalue-minimisations  :  4750
 total energy-change (2. order) :-0.8916486E+02  (-0.7465615E+01)
 number of electron     376.0000777 magnetization 
 augmentation part      110.2122515 magnetization 

 Broyden mixing:
  rms(total) = 0.15849E+02    rms(broyden)= 0.15847E+02
  rms(prec ) = 0.18979E+02
  weight for this iteration     100.00

 eigenvalues of (default mixing * dielectric matrix)
  average eigenvalue GAMMA=   0.2198
  0.3658  0.0737

 Free energy of the ion-electron system (eV)
  ---------------------------------------------------
  alpha Z        PSCENC =      1136.56246079
  Ewald energy   TEWEN  =    -19713.34295847
  -Hartree energ DENC   =    -12357.26107531
  -exchange      EXHF   =         0.00000000
  -V(xc)+E(xc)   XCENC  =      1356.16684502
  PAW double counting   =     29956.73555858   -30236.38227754
  entropy T*S    EENTRO =        -0.43355531
  eigenvalues    EBANDS =     -2886.97435586
  atomic energy  EATOM  =     32340.34786160
  ---------------------------------------------------
  free energy    TOTEN  =      -404.58149650 eV

  energy without entropy =     -404.14794119  energy(sigma->0) =     -404.43697806


--------------------------------------------------------------------------------------------------------




----------------------------------------- Iteration    1(  15)  ---------------------------------------


    POTLOK:  cpu time    0.31: real time    0.61
    SETDIJ:  cpu time    0.06: real time    0.12
    EDDIAG:  cpu time    6.56: real time   12.68
  RMM-DIIS:  cpu time   24.95: real time   49.51
    ORTHCH:  cpu time    1.94: real time    3.86
       DOS:  cpu time    0.01: real time    0.02
    CHARGE:  cpu time    2.01: real time    3.51
    MIXING:  cpu time    0.01: real time    0.04
    --------------------------------------------
      LOOP:  cpu time   35.84: real time   70.35

 eigenvalue-minimisations  :  3862
 total energy-change (2. order) : 0.1109503E+03  (-0.2118396E+01)
 number of electron     376.0000902 magnetization 
 augmentation part      109.6418176 magnetization 

 Broyden mixing:
  rms(total) = 0.76840E+01    rms(broyden)= 0.76790E+01
  rms(prec ) = 0.93082E+01
  weight for this iteration     100.00

 eigenvalues of (default mixing * dielectric matrix)
  average eigenvalue GAMMA=   0.2326
  0.2874  0.2874  0.1228

 Free energy of the ion-electron system (eV)
  ---------------------------------------------------
  alpha Z        PSCENC =      1136.56246079
  Ewald energy   TEWEN  =    -19713.34295847
  -Hartree energ DENC   =    -12362.30443421
  -exchange      EXHF   =         0.00000000
  -V(xc)+E(xc)   XCENC  =      1355.77840352
  PAW double counting   =     30245.52692491   -30531.33836909
  entropy T*S    EENTRO =        -0.08925625
  eigenvalues    EBANDS =     -2764.77180169
  atomic energy  EATOM  =     32340.34786160
  ---------------------------------------------------
  free energy    TOTEN  =      -293.63116889 eV

  energy without entropy =     -293.54191264  energy(sigma->0) =     -293.60141680


--------------------------------------------------------------------------------------------------------




----------------------------------------- Iteration    1(  16)  ---------------------------------------


    POTLOK:  cpu time    0.31: real time    0.60
    SETDIJ:  cpu time    0.06: real time    0.12
    EDDIAG:  cpu time    6.38: real time   12.77
  RMM-DIIS:  cpu time   24.64: real time   48.58
    ORTHCH:  cpu time    1.96: real time    3.92
       DOS:  cpu time    0.01: real time    0.01
    CHARGE:  cpu time    2.02: real time    3.80
    MIXING:  cpu time    0.01: real time    0.03
    --------------------------------------------
      LOOP:  cpu time   35.38: real time   69.82

 eigenvalue-minimisations  :  3820
 total energy-change (2. order) :-0.4648752E+02  (-0.2790200E+01)
 number of electron     376.0000705 magnetization 
 augmentation part      109.7658381 magnetization 

 Broyden mixing:
  rms(total) = 0.14064E+02    rms(broyden)= 0.14061E+02
  rms(prec ) = 0.17682E+02
  weight for this iteration     100.00

 eigenvalues of (default mixing * dielectric matrix)
  average eigenvalue GAMMA=   0.3249
  0.5701  0.5701  0.1031  0.0562

 Free energy of the ion-electron system (eV)
  ---------------------------------------------------
  alpha Z        PSCENC =      1136.56246079
  Ewald energy   TEWEN  =    -19713.34295847
  -Hartree energ DENC   =    -12354.99840771
  -exchange      EXHF   =         0.00000000
  -V(xc)+E(xc)   XCENC  =      1355.39820824
  PAW double counting   =     30408.46350396   -30698.65072363
  entropy T*S    EENTRO =         0.00922936
  eigenvalues    EBANDS =     -2813.90785994
  atomic energy  EATOM  =     32340.34786160
  ---------------------------------------------------
  free energy    TOTEN  =      -340.11868580 eV

  energy without entropy =     -340.12791516  energy(sigma->0) =     -340.12176225


--------------------------------------------------------------------------------------------------------




----------------------------------------- Iteration    1(  17)  ---------------------------------------


    POTLOK:  cpu time    0.32: real time    0.64
    SETDIJ:  cpu time    0.06: real time    0.12
    EDDIAG:  cpu time    6.42: real time   12.21
  RMM-DIIS:  cpu time   25.24: real time   40.32
    ORTHCH:  cpu time    2.03: real time    4.06
       DOS:  cpu time    0.01: real time    0.02
    CHARGE:  cpu time    2.08: real time    4.01
    MIXING:  cpu time    0.01: real time    0.02
    --------------------------------------------
      LOOP:  cpu time   36.17: real time   61.41

 eigenvalue-minimisations  :  3869
 total energy-change (2. order) :-0.4493893E+02  (-0.2685334E+01)
 number of electron     376.0000674 magnetization 
 augmentation part      110.4321500 magnetization 

 Broyden mixing:
  rms(total) = 0.13107E+02    rms(broyden)= 0.13105E+02
  rms(prec ) = 0.16240E+02
  weight for this iteration     100.00

 eigenvalues of (default mixing * dielectric matrix)
  average eigenvalue GAMMA=   0.3358
  0.9143  0.5416  0.0862  0.0862  0.0506

 Free energy of the ion-electron system (eV)
  ---------------------------------------------------
  alpha Z        PSCENC =      1136.56246079
  Ewald energy   TEWEN  =    -19713.34295847
  -Hartree energ DENC   =    -12341.64135867
  -exchange      EXHF   =         0.00000000
  -V(xc)+E(xc)   XCENC  =      1355.34234200
  PAW double counting   =     30804.59653076   -31093.11355212
  entropy T*S    EENTRO =        -0.15248763
  eigenvalues    EBANDS =     -2873.65645859
  atomic energy  EATOM  =     32340.34786160
  ---------------------------------------------------
  free energy    TOTEN  =      -385.05762032 eV

  energy without entropy =     -384.90513269  energy(sigma->0) =     -385.00679111


--------------------------------------------------------------------------------------------------------




----------------------------------------- Iteration    1(  18)  ---------------------------------------


    POTLOK:  cpu time    0.34: real time    0.68
    SETDIJ:  cpu time    0.06: real time    0.13
    EDDIAG:  cpu time    6.77: real time   13.43
  RMM-DIIS:  cpu time   30.13: real time   58.22
    ORTHCH:  cpu time    1.91: real time    3.65
       DOS:  cpu time    0.01: real time    0.01
    CHARGE:  cpu time    1.96: real time    1.96
    MIXING:  cpu time    0.01: real time    0.01
    --------------------------------------------
      LOOP:  cpu time   41.19: real time   78.09

 eigenvalue-minimisations  :  4366
 total energy-change (2. order) : 0.3619322E+02  (-0.1119596E+01)
 number of electron     376.0000737 magnetization 
 augmentation part      110.9992065 magnetization 

 Broyden mixing:
  rms(total) = 0.11624E+02    rms(broyden)= 0.11623E+02
  rms(prec ) = 0.14170E+02
  weight for this iteration     100.00

 eigenvalues of (default mixing * dielectric matrix)
  average eigenvalue GAMMA=   0.3050
  0.9689  0.5478  0.1028  0.0802  0.0802  0.0502

 Free energy of the ion-electron system (eV)
  ---------------------------------------------------
  alpha Z        PSCENC =      1136.56246079
  Ewald energy   TEWEN  =    -19713.34295847
  -Hartree energ DENC   =    -12332.23349053
  -exchange      EXHF   =         0.00000000
  -V(xc)+E(xc)   XCENC  =      1355.78065860
  PAW double counting   =     31360.67284391   -31653.09726685
  entropy T*S    EENTRO =        -0.00987012
  eigenvalues    EBANDS =     -2843.54463720
  atomic energy  EATOM  =     32340.34786160
  ---------------------------------------------------
  free energy    TOTEN  =      -348.86439826 eV

  energy without entropy =     -348.85452814  energy(sigma->0) =     -348.86110822


--------------------------------------------------------------------------------------------------------




----------------------------------------- Iteration    1(  19)  ---------------------------------------


    POTLOK:  cpu time    0.28: real time    0.37
    SETDIJ:  cpu time    0.06: real time    0.06
    EDDIAG:  cpu time    6.21: real time   10.10
  RMM-DIIS:  cpu time   23.68: real time   43.55
    ORTHCH:  cpu time    1.94: real time    3.64
       DOS:  cpu time    0.01: real time    0.01
    CHARGE:  cpu time    2.01: real time    4.03
    MIXING:  cpu time    0.01: real time    0.02
    --------------------------------------------
      LOOP:  cpu time   34.20: real time   61.77

 eigenvalue-minimisations  :  3738
 total energy-change (2. order) : 0.1800735E+02  (-0.8141285E+00)
 number of electron     376.0000761 magnetization 
 augmentation part      110.9800789 magnetization 

 Broyden mixing:
  rms(total) = 0.99522E+01    rms(broyden)= 0.99506E+01
  rms(prec ) = 0.12211E+02
  weight for this iteration     100.00

 eigenvalues of (default mixing * dielectric matrix)
  average eigenvalue GAMMA=   0.2942
  0.7559  0.7559  0.1676  0.1676  0.1167  0.0479  0.0479

 Free energy of the ion-electron system (eV)
  ---------------------------------------------------
  alpha Z        PSCENC =      1136.56246079
  Ewald energy   TEWEN  =    -19713.34295847
  -Hartree energ DENC   =    -12329.64795296
  -exchange      EXHF   =         0.00000000
  -V(xc)+E(xc)   XCENC  =      1355.78190435
  PAW double counting   =     31494.21208516   -31787.11977910
  entropy T*S    EENTRO =        -0.00783660
  eigenvalues    EBANDS =     -2827.64283262
  atomic energy  EATOM  =     32340.34786160
  ---------------------------------------------------
  free energy    TOTEN  =      -330.85704785 eV

  energy without entropy =     -330.84921125  energy(sigma->0) =     -330.85443565


--------------------------------------------------------------------------------------------------------




----------------------------------------- Iteration    1(  20)  ---------------------------------------


    POTLOK:  cpu time    0.31: real time    0.62
    SETDIJ:  cpu time    0.06: real time    0.12
    EDDIAG:  cpu time    6.53: real time   12.20
  RMM-DIIS:  cpu time   23.85: real time   41.48
    ORTHCH:  cpu time    1.92: real time    3.73
       DOS:  cpu time    0.00: real time    0.01
    CHARGE:  cpu time    1.99: real time    3.66
    MIXING:  cpu time    0.01: real time    0.02
    --------------------------------------------
      LOOP:  cpu time   34.68: real time   61.83

 eigenvalue-minimisations  :  3800
 total energy-change (2. order) :-0.1709108E+02  (-0.1312893E+01)
 number of electron     376.0000734 magnetization 
 augmentation part      110.9508870 magnetization 

 Broyden mixing:
  rms(total) = 0.11686E+02    rms(broyden)= 0.11683E+02
  rms(prec ) = 0.14525E+02
  weight for this iteration     100.00

 eigenvalues of (default mixing * dielectric matrix)
  average eigenvalue GAMMA=   0.3462
  0.9900  0.9900  0.3608  0.1457  0.1070  0.0758  0.0563  0.0437

 Free energy of the ion-electron system (eV)
  ---------------------------------------------------
  alpha Z        PSCENC =      1136.56246079
  Ewald energy   TEWEN  =    -19713.34295847
  -Hartree energ DENC   =    -12326.51679756
  -exchange      EXHF   =         0.00000000
  -V(xc)+E(xc)   XCENC  =      1355.43401138
  PAW double counting   =     31588.61426892   -31882.83153757
  entropy T*S    EENTRO =         0.03266026
  eigenvalues    EBANDS =     -2846.24809995
  atomic energy  EATOM  =     32340.34786160
  ---------------------------------------------------
  free energy    TOTEN  =      -347.94813060 eV

  energy without entropy =     -347.98079086  energy(sigma->0) =     -347.95901735


--------------------------------------------------------------------------------------------------------




----------------------------------------- Iteration    1(  21)  ---------------------------------------


    POTLOK:  cpu time    0.30: real time    0.55
    SETDIJ:  cpu time    0.06: real time    0.12
    EDDIAG:  cpu time    6.56: real time   11.66
  RMM-DIIS:  cpu time   27.79: real time   44.98
    ORTHCH:  cpu time    2.03: real time    3.66
       DOS:  cpu time    0.01: real time    0.02
    CHARGE:  cpu time    2.06: real time    3.85
    MIXING:  cpu time    0.02: real time    0.02
    --------------------------------------------
      LOOP:  cpu time   38.82: real time   64.86

 eigenvalue-minimisations  :  3767
 total energy-change (2. order) :-0.1343156E+02  (-0.2294965E+01)
 number of electron     376.0000734 magnetization 
 augmentation part      110.7200412 magnetization 

 Broyden mixing:
  rms(total) = 0.13639E+02    rms(broyden)= 0.13637E+02
  rms(prec ) = 0.16572E+02
  weight for this iteration     100.00

 eigenvalues of (default mixing * dielectric matrix)
  average eigenvalue GAMMA=   0.3553
  1.1463  1.1463  0.3782  0.1673  0.1056  0.0828  0.0734  0.0537  0.0440

 Free energy of the ion-electron system (eV)
  ---------------------------------------------------
  alpha Z        PSCENC =      1136.56246079
  Ewald energy   TEWEN  =    -19713.34295847
  -Hartree energ DENC   =    -12312.44051920
  -exchange      EXHF   =         0.00000000
  -V(xc)+E(xc)   XCENC  =      1355.01949261
  PAW double counting   =     31834.54167505   -32131.42947760
  entropy T*S    EENTRO =        -0.04576398
  eigenvalues    EBANDS =     -2870.59246198
  atomic energy  EATOM  =     32340.34786160
  ---------------------------------------------------
  free energy    TOTEN  =      -361.37969118 eV

  energy without entropy =     -361.33392720  energy(sigma->0) =     -361.36443652


--------------------------------------------------------------------------------------------------------




----------------------------------------- Iteration    1(  22)  ---------------------------------------


    POTLOK:  cpu time    0.36: real time    0.65
    SETDIJ:  cpu time    0.06: real time    0.07
    EDDIAG:  cpu time    6.77: real time   12.55
  RMM-DIIS:  cpu time   25.04: real time   46.69
    ORTHCH:  cpu time    1.97: real time    3.79
       DOS:  cpu time    0.01: real time    0.01
    CHARGE:  cpu time    2.02: real time    3.44
    MIXING:  cpu time    0.02: real time    0.02
    --------------------------------------------
      LOOP:  cpu time   36.25: real time   67.21

 eigenvalue-minimisations  :  3846
 total energy-change (2. order) : 0.2953662E+02  (-0.1614910E+01)
 number of electron     376.0000619 magnetization 
 augmentation part      110.8513252 magnetization 

 Broyden mixing:
  rms(total) = 0.11834E+02    rms(broyden)= 0.11832E+02
  rms(prec ) = 0.14594E+02
  weight for this iteration     100.00

 eigenvalues of (default mixing * dielectric matrix)
  average eigenvalue GAMMA=   0.3359
  1.1913  1.1913  0.3762  0.1711  0.1130  0.0856  0.0856  0.0503  0.0503  0.0443

 Free energy of the ion-electron system (eV)
  ---------------------------------------------------
  alpha Z        PSCENC =      1136.56246079
  Ewald energy   TEWEN  =    -19713.34295847
  -Hartree energ DENC   =    -12301.99991396
  -exchange      EXHF   =         0.00000000
  -V(xc)+E(xc)   XCENC  =      1355.05129774
  PAW double counting   =     32122.49183052   -32420.73379922
  entropy T*S    EENTRO =         0.03859496
  eigenvalues    EBANDS =     -2850.25844570
  atomic energy  EATOM  =     32340.34786160
  ---------------------------------------------------
  free energy    TOTEN  =      -331.84307175 eV

  energy without entropy =     -331.88166671  energy(sigma->0) =     -331.85593674


--------------------------------------------------------------------------------------------------------




----------------------------------------- Iteration    1(  23)  ---------------------------------------


    POTLOK:  cpu time    0.33: real time    0.63
    SETDIJ:  cpu time    0.06: real time    0.11
    EDDIAG:  cpu time    6.44: real time   11.50
  RMM-DIIS:  cpu time   23.30: real time   43.12
    ORTHCH:  cpu time    1.91: real time    3.45
       DOS:  cpu time    0.01: real time    0.01
    CHARGE:  cpu time    1.98: real time    3.65
    MIXING:  cpu time    0.02: real time    0.02
    --------------------------------------------
      LOOP:  cpu time   34.04: real time   62.49

 eigenvalue-minimisations  :  3715
 total energy-change (2. order) : 0.3266141E+02  (-0.5596654E+00)
 number of electron     376.0000810 magnetization 
 augmentation part      110.9439510 magnetization 

 Broyden mixing:
  rms(total) = 0.80373E+01    rms(broyden)= 0.80344E+01
  rms(prec ) = 0.10472E+02
  weight for this iteration     100.00

 eigenvalues of (default mixing * dielectric matrix)
  average eigenvalue GAMMA=   0.3245
  1.3990  1.0201  0.3095  0.2877  0.1358  0.1017  0.1017  0.0603  0.0603  0.0432
  0.0495

 Free energy of the ion-electron system (eV)
  ---------------------------------------------------
  alpha Z        PSCENC =      1136.56246079
  Ewald energy   TEWEN  =    -19713.34295847
  -Hartree energ DENC   =    -12302.90608756
  -exchange      EXHF   =         0.00000000
  -V(xc)+E(xc)   XCENC  =      1355.09565980
  PAW double counting   =     32269.79038174   -32570.31959324
  entropy T*S    EENTRO =        -0.01417215
  eigenvalues    EBANDS =     -2814.39521418
  atomic energy  EATOM  =     32340.34786160
  ---------------------------------------------------
  free energy    TOTEN  =      -299.18166165 eV

  energy without entropy =     -299.16748950  energy(sigma->0) =     -299.17693760


--------------------------------------------------------------------------------------------------------




----------------------------------------- Iteration    1(  24)  ---------------------------------------


    POTLOK:  cpu time    0.29: real time    0.53
    SETDIJ:  cpu time    0.06: real time    0.11
    EDDIAG:  cpu time    6.32: real time   11.35
  RMM-DIIS:  cpu time   24.61: real time   45.85
    ORTHCH:  cpu time    1.94: real time    3.49
       DOS:  cpu time    0.01: real time    0.02
    CHARGE:  cpu time    2.02: real time    3.92
    MIXING:  cpu time    0.02: real time    0.04
    --------------------------------------------
      LOOP:  cpu time   35.26: real time   65.31

 eigenvalue-minimisations  :  3798
 total energy-change (2. order) :-0.4802737E+01  (-0.4478002E+00)
 number of electron     376.0000763 magnetization 
 augmentation part      110.9569283 magnetization 

 Broyden mixing:
  rms(total) = 0.94671E+01    rms(broyden)= 0.94647E+01
  rms(prec ) = 0.12454E+02
  weight for this iteration     100.00

 eigenvalues of (default mixing * dielectric matrix)
  average eigenvalue GAMMA=   0.3402
  1.7674  0.6742  0.5041  0.5041  0.1456  0.1123  0.1000  0.0800  0.0560  0.0468
  0.0456  0.0456

 Free energy of the ion-electron system (eV)
  ---------------------------------------------------
  alpha Z        PSCENC =      1136.56246079
  Ewald energy   TEWEN  =    -19713.34295847
  -Hartree energ DENC   =    -12303.03261799
  -exchange      EXHF   =         0.00000000
  -V(xc)+E(xc)   XCENC  =      1355.01540801
  PAW double counting   =     32341.42768414   -32643.26620699
  entropy T*S    EENTRO =         0.06907234
  eigenvalues    EBANDS =     -2817.76510256
  atomic energy  EATOM  =     32340.34786160
  ---------------------------------------------------
  free energy    TOTEN  =      -303.98439914 eV

  energy without entropy =     -304.05347148  energy(sigma->0) =     -304.00742325


--------------------------------------------------------------------------------------------------------




----------------------------------------- Iteration    1(  25)  ---------------------------------------


    POTLOK:  cpu time    0.31: real time    0.52
    SETDIJ:  cpu time    0.06: real time    0.10
    EDDIAG:  cpu time    6.32: real time   12.17
  RMM-DIIS:  cpu time   26.68: real time   47.84
    ORTHCH:  cpu time    2.01: real time    3.66
       DOS:  cpu time    0.01: real time    0.01
    CHARGE:  cpu time    2.03: real time    3.53
    MIXING:  cpu time    0.02: real time    0.04
    --------------------------------------------
      LOOP:  cpu time   37.43: real time   67.86

 eigenvalue-minimisations  :  3875
 total energy-change (2. order) : 0.1159187E+02  (-0.3941158E+00)
 number of electron     376.0000779 magnetization 
 augmentation part      111.1462379 magnetization 

 Broyden mixing:
  rms(total) = 0.76149E+01    rms(broyden)= 0.76119E+01
  rms(prec ) = 0.94395E+01
  weight for this iteration     100.00

 eigenvalues of (default mixing * dielectric matrix)
  average eigenvalue GAMMA=   0.3336
  1.9170  0.5827  0.5827  0.5255  0.1422  0.1422  0.0904  0.0904  0.0746  0.0543
  0.0430  0.0461  0.0461

 Free energy of the ion-electron system (eV)
  ---------------------------------------------------
  alpha Z        PSCENC =      1136.56246079
  Ewald energy   TEWEN  =    -19713.34295847
  -Hartree energ DENC   =    -12303.05711012
  -exchange      EXHF   =         0.00000000
  -V(xc)+E(xc)   XCENC  =      1355.18541317
  PAW double counting   =     32497.59915440   -32800.89248432
  entropy T*S    EENTRO =         0.05418363
  eigenvalues    EBANDS =     -2804.84905097
  atomic energy  EATOM  =     32340.34786160
  ---------------------------------------------------
  free energy    TOTEN  =      -292.39253028 eV

  energy without entropy =     -292.44671391  energy(sigma->0) =     -292.41059149


--------------------------------------------------------------------------------------------------------




----------------------------------------- Iteration    1(  26)  ---------------------------------------


    POTLOK:  cpu time    0.34: real time    0.69
    SETDIJ:  cpu time    0.06: real time    0.11
    EDDIAG:  cpu time    6.81: real time   12.83
  RMM-DIIS:  cpu time   25.08: real time   47.54
    ORTHCH:  cpu time    1.88: real time    3.77
       DOS:  cpu time    0.01: real time    0.01
    CHARGE:  cpu time    1.96: real time    3.73
    MIXING:  cpu time    0.02: real time    0.05
    --------------------------------------------
      LOOP:  cpu time   36.15: real time   68.72

 eigenvalue-minimisations  :  3851
 total energy-change (2. order) : 0.4706086E+01  (-0.3657195E+00)
 number of electron     376.0000744 magnetization 
 augmentation part      111.2570601 magnetization 

 Broyden mixing:
  rms(total) = 0.67638E+01    rms(broyden)= 0.67610E+01
  rms(prec ) = 0.87023E+01
  weight for this iteration     100.00

 eigenvalues of (default mixing * dielectric matrix)
  average eigenvalue GAMMA=   0.3254
  1.9900  0.5672  0.5516  0.5516  0.2141  0.1679  0.0979  0.0979  0.0841  0.0521
  0.0498  0.0498  0.0435  0.0373

 Free energy of the ion-electron system (eV)
  ---------------------------------------------------
  alpha Z        PSCENC =      1136.56246079
  Ewald energy   TEWEN  =    -19713.34295847
  -Hartree energ DENC   =    -12303.36664727
  -exchange      EXHF   =         0.00000000
  -V(xc)+E(xc)   XCENC  =      1355.34875577
  PAW double counting   =     32573.09010897   -32877.76992677
  entropy T*S    EENTRO =        -0.01958106
  eigenvalues    EBANDS =     -2798.53651826
  atomic energy  EATOM  =     32340.34786160
  ---------------------------------------------------
  free energy    TOTEN  =      -287.68644470 eV

  energy without entropy =     -287.66686364  energy(sigma->0) =     -287.67991768


--------------------------------------------------------------------------------------------------------




----------------------------------------- Iteration    1(  27)  ---------------------------------------


    POTLOK:  cpu time    0.27: real time    0.44
    SETDIJ:  cpu time    0.06: real time    0.08
    EDDIAG:  cpu time    6.04: real time    6.06
  RMM-DIIS:  cpu time   23.44: real time   23.48
    ORTHCH:  cpu time    1.91: real time    1.91
       DOS:  cpu time    0.01: real time    0.01
    CHARGE:  cpu time    1.96: real time    2.05
[...]
         0         1         2         3         4         5         6         7         8         9
 total charge-density along one line
 
 pseudopotential strength for first ion, spin component:           1
 -8.973  -0.019   0.005   0.074   0.002  -9.413  -0.018   0.005
 -0.019  -9.066  -0.004   0.005   0.097  -0.018  -9.503  -0.004
  0.005  -0.004  -8.926   0.007  -0.009   0.005  -0.004  -9.368
  0.074   0.005   0.007  -9.057   0.031   0.072   0.005   0.007
  0.002   0.097  -0.009   0.031  -8.981   0.002   0.094  -0.009
 -9.413  -0.018   0.005   0.072   0.002  -9.814  -0.018   0.005
 -0.018  -9.503  -0.004   0.005   0.094  -0.018  -9.901  -0.004
  0.005  -0.004  -9.368   0.007  -0.009   0.005  -0.004  -9.770
  0.072   0.005   0.007  -9.495   0.030   0.070   0.005   0.007
  0.002   0.094  -0.009   0.030  -9.421   0.002   0.091  -0.008
 -0.000   0.003   0.003  -0.002  -0.002  -0.000   0.003   0.003
 -0.001   0.006   0.005  -0.003  -0.004  -0.001   0.006   0.005
 -0.000   0.008   0.000   0.000  -0.001  -0.000   0.007   0.000
  0.000  -0.000   0.006   0.001   0.000   0.000  -0.000   0.005
 -0.002   0.000  -0.001   0.008   0.003  -0.002   0.000  -0.001
 -0.000   0.011   0.000   0.000  -0.001  -0.000   0.010   0.000
  0.000  -0.001   0.009   0.001   0.000   0.000  -0.001   0.009
 -0.002   0.000  -0.001   0.011   0.002  -0.002   0.000  -0.000
 total augmentation occupancy for first ion, spin component:           1
  5.627  -0.656   0.052   1.360   0.099  -3.687   0.225   0.012   0.030  -0.059   0.061  -0.004  -0.195  -0.010   0.251   0.025
 -0.656   4.332   0.041   0.128   1.395   0.218  -3.598  -0.006  -0.011   0.083  -0.081   0.014  -0.161   0.064   0.037   0.032
  0.052   0.041   6.954   0.140   0.023   0.009  -0.007  -3.962  -0.106  -0.058  -0.040   0.007   0.055   0.226   0.005  -0.009
  1.360   0.128   0.140   4.316   0.440   0.041  -0.014  -0.111  -3.585  -0.064  -0.008   0.001  -0.067   0.036  -0.243   0.004
  0.099   1.395   0.023   0.440   5.630  -0.060   0.075  -0.057  -0.061  -3.819   0.059  -0.010   0.257  -0.025   0.231  -0.056
 -3.687   0.218   0.009   0.041  -0.060   3.195   0.054  -0.046  -0.900   0.038  -0.057   0.006   0.191   0.013  -0.293  -0.028
  0.225  -3.598  -0.007  -0.014   0.075   0.054   3.837  -0.018  -0.065  -1.000   0.084  -0.015   0.235  -0.073  -0.016  -0.047
  0.012  -0.006  -3.962  -0.111  -0.057  -0.046  -0.018   2.825   0.099   0.077   0.016  -0.003  -0.055  -0.215  -0.003   0.009
  0.030  -0.011  -0.106  -3.585  -0.061  -0.900  -0.065   0.099   3.815  -0.161   0.026  -0.005   0.050  -0.043   0.324  -0.004
 -0.059   0.083  -0.058  -0.064  -3.819   0.038  -1.000   0.077  -0.161   3.410  -0.067   0.013  -0.299   0.033  -0.236   0.061
  0.061  -0.081  -0.040  -0.008   0.059  -0.057   0.084   0.016   0.026  -0.067   1.884  -0.353  -0.012   0.124  -0.023   0.003
 -0.004   0.014   0.007   0.001  -0.010   0.006  -0.015  -0.003  -0.005   0.013  -0.353   0.079   0.003  -0.023   0.006  -0.001
 -0.195  -0.161   0.055  -0.067   0.257   0.191   0.235  -0.055   0.050  -0.299  -0.012   0.003   0.267   0.008  -0.005  -0.044
 -0.010   0.064   0.226   0.036  -0.025   0.013  -0.073  -0.215  -0.043   0.033   0.124  -0.023   0.008   0.264   0.006  -0.001
  0.251   0.037   0.005  -0.243   0.231  -0.293  -0.016  -0.003   0.324  -0.236  -0.023   0.006  -0.005   0.006   0.253   0.001
  0.025   0.032  -0.009   0.004  -0.056  -0.028  -0.047   0.009  -0.004   0.061   0.003  -0.001  -0.044  -0.001   0.001   0.008
  0.003  -0.011  -0.057  -0.006   0.007  -0.003   0.014   0.048   0.008  -0.008  -0.025   0.006  -0.001  -0.043  -0.001   0.000
 -0.054   0.003  -0.001   0.047  -0.028   0.060  -0.002   0.001  -0.064   0.035   0.005  -0.001   0.001  -0.001  -0.041  -0.000


------------------------ aborting loop because EDIFF is reached ----------------------------------------


    CHARGE:  cpu time    2.02: real time    4.03
    FORLOC:  cpu time    0.19: real time    0.39
    FORNL :  cpu time   11.50: real time   22.79
    STRESS:  cpu time   31.93: real time   50.29
    FORCOR:  cpu time    0.52: real time    1.04
    FORHAR:  cpu time    0.25: real time    0.49
    MIXING:  cpu time    0.08: real time    0.12
    OFIELD:  cpu time    0.00: real time    0.00

  FORCE on cell =-STRESS in cart. coord.  units (eV):
  Direction    XX          YY          ZZ          XY          YZ          ZX
  --------------------------------------------------------------------------------------
  Alpha Z  1136.56246  1136.56246  1136.56246
  Ewald   -7500.27331 -7139.41608 -5073.77197     0.00000     0.00000    19.04578
  Hartree  3465.04500  3637.56259  5219.27069    -0.76457     0.03145    21.12972
  E(xc)   -2002.53003 -2002.19294 -2001.47391    -0.00345    -0.04507     0.00634
  Local   -1393.31254 -1924.82604 -5565.97704     0.89555    -0.39275   -39.90040
  n-local -1841.06998 -1834.25309 -1838.53319     0.00446    -0.06272    -2.26289
  augment  1207.72613  1207.08121  1207.85447     0.07474     0.10120     1.13377
  Kinetic  6831.47779  6816.88333  6805.63101     0.11953     0.27535     0.73347
  Fock        0.00000     0.00000     0.00000     0.00000     0.00000     0.00000
  -------------------------------------------------------------------------------------
  Total     -96.37448  -102.59855  -110.43748     0.32627    -0.09255    -0.11420
  in kB    -204.90985  -218.14336  -234.81038     0.69370    -0.19678    -0.24280
  external pressure =     -219.29 kB  Pullay stress =        0.00 kB


 VOLUME and BASIS-vectors are now :
 -----------------------------------------------------------------------------
  energy-cutoff  :      400.00
  volume of cell :      753.55
      direct lattice vectors                 reciprocal lattice vectors
     9.401191000  0.000000000 -0.084129000     0.106369501  0.000000000  0.000000000
     0.000000000  5.359467000  0.000000000     0.000000000  0.186585718  0.000000000
     0.000000000  0.000000000 14.955651000     0.000598353  0.000000000  0.066864358

  length of vectors
     9.401567418  5.359467000 14.955651000     0.106369501  0.186585718  0.066867035


 FORCES acting on ions
    electron-ion (+dipol)            ewald-force                    non-local-force                 convergence-correction
 -----------------------------------------------------------------------------------------------
   -.120E+02 -.373E+00 -.852E+02   0.117E+02 0.254E+00 0.852E+02   0.368E+00 0.245E+00 -.318E+01   -.366E-01 0.466E-01 0.273E+01
   -.127E+02 0.248E+00 -.799E+02   0.117E+02 -.254E+00 0.852E+02   0.361E+00 -.259E+00 -.314E+01   0.681E+00 0.965E-01 -.265E+01
   -.121E+02 -.335E+00 -.841E+02   0.117E+02 0.254E+00 0.852E+02   0.361E+00 0.251E+00 -.314E+01   0.788E-01 0.122E-02 0.162E+01
   -.113E+02 0.361E+00 -.805E+02   0.117E+02 -.254E+00 0.852E+02   0.376E+00 -.239E+00 -.314E+01   -.730E+00 -.243E-01 -.203E+01
   -.217E+01 0.115E+02 0.105E+03   0.341E+01 -.120E+02 -.107E+03   -.582E+00 -.208E+00 0.365E+01   -.462E-01 0.582E-01 -.775E+00
   -.373E+01 -.117E+02 0.104E+03   0.341E+01 0.120E+02 -.107E+03   -.541E+00 0.169E+00 0.366E+01   0.149E+01 0.130E+00 0.747E+00
   -.224E+01 0.115E+02 0.105E+03   0.341E+01 -.120E+02 -.107E+03   -.539E+00 -.157E+00 0.367E+01   0.107E-01 0.193E-01 -.378E+00
   -.830E+00 -.115E+02 0.104E+03   0.341E+01 0.120E+02 -.107E+03   -.536E+00 0.172E+00 0.366E+01   -.139E+01 -.201E-01 0.267E+00
   -.376E+01 -.447E+01 0.655E+02   0.247E+01 0.709E+01 -.642E+02   0.185E+00 -.151E+01 0.137E+01   0.857E+00 -.847E-01 -.259E+01
   -.354E+01 0.441E+01 0.593E+02   0.247E+01 -.709E+01 -.642E+02   0.193E+00 0.151E+01 0.138E+01   0.637E+00 0.147E+00 0.359E+01
   -.207E+01 -.461E+01 0.645E+02   0.247E+01 0.709E+01 -.642E+02   0.214E+00 -.153E+01 0.140E+01   -.866E+00 0.680E-01 -.160E+01
   -.232E+01 0.461E+01 0.612E+02   0.247E+01 -.709E+01 -.642E+02   0.213E+00 0.153E+01 0.139E+01   -.609E+00 -.641E-01 0.167E+01
   -.880E+01 -.187E+01 -.883E+02   0.873E+01 -.107E+00 0.874E+02   -.336E+00 0.812E+00 -.235E+00   0.470E+00 0.258E-01 -.305E+00
   -.982E+01 0.197E+01 -.888E+02   0.873E+01 0.107E+00 0.874E+02   -.399E+00 -.819E+00 -.221E+00   0.151E+01 -.126E+00 0.224E+00
   -.780E+01 -.178E+01 -.879E+02   0.873E+01 -.107E+00 0.874E+02   -.363E+00 0.826E+00 -.233E+00   -.526E+00 -.563E-01 -.609E+00
   -.689E+01 0.176E+01 -.887E+02   0.873E+01 0.107E+00 0.874E+02   -.361E+00 -.829E+00 -.237E+00   -.145E+01 0.655E-01 0.194E+00
   -.107E+03 -.929E+02 0.111E+03   0.116E+03 0.986E+02 -.114E+03   -.115E+02 -.711E+01 0.557E+01   0.160E+01 -.374E+00 -.184E+01
   -.106E+03 0.915E+02 0.107E+03   0.116E+03 -.986E+02 -.114E+03   -.114E+02 0.705E+01 0.555E+01   0.800E+00 0.182E+01 0.251E+01
   -.104E+03 -.942E+02 0.110E+03   0.116E+03 0.986E+02 -.114E+03   -.114E+02 -.706E+01 0.558E+01   -.125E+01 0.855E+00 -.513E+00
   -.105E+03 0.936E+02 0.109E+03   0.116E+03 -.986E+02 -.114E+03   -.114E+02 0.704E+01 0.559E+01   -.685E+00 -.214E+00 0.341E+00
   0.595E+02 0.128E+03 -.539E+02   -.638E+02 -.141E+03 0.526E+02   0.543E+01 0.128E+02 -.104E+01   -.142E+01 -.244E+00 0.268E+01
   0.584E+02 -.128E+03 -.495E+02   -.638E+02 0.141E+03 0.526E+02   0.548E+01 -.128E+02 -.101E+01   -.411E+00 0.254E+00 -.180E+01
   0.576E+02 0.128E+03 -.534E+02   -.638E+02 -.141E+03 0.526E+02   0.545E+01 0.128E+02 -.107E+01   0.463E+00 0.134E+00 0.217E+01
   0.579E+02 -.128E+03 -.491E+02   -.638E+02 0.141E+03 0.526E+02   0.550E+01 -.128E+02 -.105E+01   0.120E+00 -.102E+00 -.214E+01
   0.112E+03 0.159E+03 -.695E+02   -.114E+03 -.170E+03 0.727E+02   0.573E+00 0.113E+02 -.229E+01   0.611E+00 -.348E+00 -.117E+01
   0.114E+03 -.159E+03 -.720E+02   -.114E+03 0.170E+03 0.727E+02   0.592E+00 -.112E+02 -.230E+01   -.149E+01 0.741E+00 0.135E+01
   0.115E+03 0.158E+03 -.682E+02   -.114E+03 -.170E+03 0.727E+02   0.531E+00 0.113E+02 -.235E+01   -.243E+01 0.862E+00 -.246E+01
   0.111E+03 -.159E+03 -.715E+02   -.114E+03 0.170E+03 0.727E+02   0.610E+00 -.112E+02 -.232E+01   0.173E+01 -.766E-01 0.817E+00
   0.789E+02 0.179E+03 -.778E+02   -.875E+02 -.188E+03 0.801E+02   0.940E+01 0.100E+02 -.448E+01   -.407E+00 -.940E+00 0.177E+01
   0.760E+02 -.180E+03 -.736E+02   -.875E+02 0.188E+03 0.801E+02   0.946E+01 -.101E+02 -.448E+01   0.242E+01 0.172E+01 -.248E+01
   0.787E+02 0.177E+03 -.766E+02   -.875E+02 -.188E+03 0.801E+02   0.943E+01 0.101E+02 -.450E+01   -.259E+00 0.712E+00 0.567E+00
   0.795E+02 -.177E+03 -.747E+02   -.875E+02 0.188E+03 0.801E+02   0.944E+01 -.101E+02 -.449E+01   -.105E+01 -.539E+00 -.133E+01
   0.907E+02 0.117E+03 -.489E+02   -.101E+03 -.130E+03 0.511E+02   0.105E+02 0.138E+02 0.778E+00   0.368E+00 -.450E+00 -.245E+01
   0.907E+02 -.117E+03 -.542E+02   -.101E+03 0.130E+03 0.511E+02   0.105E+02 -.137E+02 0.733E+00   0.327E+00 0.849E+00 0.291E+01
   0.914E+02 0.116E+03 -.498E+02   -.101E+03 -.130E+03 0.511E+02   0.105E+02 0.137E+02 0.746E+00   -.430E+00 0.142E+00 -.153E+01
   0.909E+02 -.117E+03 -.532E+02   -.101E+03 0.130E+03 0.511E+02   0.105E+02 -.137E+02 0.748E+00   0.103E+00 0.450E-01 0.189E+01
   0.129E+03 0.770E+02 0.138E+03   -.140E+03 -.869E+02 -.150E+03   0.958E+01 0.110E+02 0.100E+02   0.205E+01 -.133E+01 0.248E+01
   0.132E+03 -.768E+02 0.142E+03   -.140E+03 0.869E+02 -.150E+03   0.935E+01 -.110E+02 0.997E+01   -.114E+00 0.112E+01 -.209E+01
   0.132E+03 0.751E+02 0.140E+03   -.140E+03 -.869E+02 -.150E+03   0.957E+01 0.110E+02 0.995E+01   -.719E+00 0.522E+00 0.718E+00
   0.132E+03 -.747E+02 0.141E+03   -.140E+03 0.869E+02 -.150E+03   0.954E+01 -.110E+02 0.997E+01   -.461E+00 -.992E+00 -.585E+00
   -.188E+03 0.100E+02 -.872E+02   0.196E+03 -.548E+01 0.958E+02   -.901E+01 -.240E+01 -.655E+01   0.109E+01 -.213E+01 -.252E+01
   -.188E+03 -.819E+01 -.914E+02   0.196E+03 0.548E+01 0.958E+02   -.896E+01 0.239E+01 -.649E+01   0.151E+01 0.329E+00 0.166E+01
   -.186E+03 0.745E+01 -.886E+02   0.196E+03 -.548E+01 0.958E+02   -.900E+01 -.234E+01 -.656E+01   -.760E+00 0.389E+00 -.112E+01
   -.186E+03 -.708E+01 -.902E+02   0.196E+03 0.548E+01 0.958E+02   -.901E+01 0.235E+01 -.658E+01   -.107E+01 -.771E+00 0.569E+00
   -.146E+03 -.249E+02 -.516E+02   0.159E+03 0.271E+02 0.524E+02   -.145E+02 -.181E+01 -.348E+01   0.115E+01 -.625E+00 0.302E+01
   -.145E+03 0.253E+02 -.462E+02   0.159E+03 -.271E+02 0.524E+02   -.145E+02 0.180E+01 -.343E+01   0.719E+00 0.274E+00 -.247E+01
   -.144E+03 -.254E+02 -.504E+02   0.159E+03 0.271E+02 0.524E+02   -.145E+02 -.181E+01 -.348E+01   -.526E+00 -.123E+00 0.183E+01
   -.144E+03 0.257E+02 -.472E+02   0.159E+03 -.271E+02 0.524E+02   -.145E+02 0.180E+01 -.347E+01   -.502E+00 -.182E+00 -.145E+01
   -.102E+02 -.157E+03 0.131E+03   0.903E+01 0.171E+03 -.142E+03   0.216E+01 -.134E+02 0.844E+01   -.144E+01 -.957E+00 0.273E+01
   -.137E+02 0.158E+03 0.134E+03   0.903E+01 -.171E+03 -.142E+03   0.220E+01 0.133E+02 0.839E+01   0.208E+01 0.109E+00 -.996E+00
   -.117E+02 -.158E+03 0.133E+03   0.903E+01 0.171E+03 -.142E+03   0.217E+01 -.133E+02 0.837E+01   0.424E-01 0.144E+00 0.556E+00
   -.979E+01 0.159E+03 0.135E+03   0.903E+01 -.171E+03 -.142E+03   0.218E+01 0.132E+02 0.841E+01   -.186E+01 -.645E+00 -.169E+01
 -----------------------------------------------------------------------------------------------
   -.972E+01 -.927E-01 -.341E+02   -.332E-12 0.000E+00 0.114E-12   0.975E+01 -.249E+00 0.340E+02   -.306E-01 0.258E+00 0.502E-01
 
 
 POSITION                                       TOTAL-FORCE (eV/Angst)
 -----------------------------------------------------------------------------------
      1.54285      2.59385      2.67760         0.033218      0.174762     -0.461678
      1.54285      2.76561     10.15542         0.025471     -0.167137     -0.439822
      6.24344      5.27359      2.63553         0.027096      0.172876     -0.406259
      6.24344      0.08588     10.11336         0.035330     -0.155022     -0.410884
      1.64833      2.53423     14.53758         0.609089     -0.702372      1.205310
      1.64833      2.82523      7.05975         0.625613      0.668279      1.207469
      6.34893      5.21397     14.49551         0.640062     -0.666895      1.189962
      6.34893      0.14550      7.01769         0.654002      0.668881      1.202473
      3.11771      0.15764     12.27164        -0.243684      1.026947      0.119182
      3.11771      5.20182      4.79382        -0.237025     -1.011600      0.092286
      7.81830      2.83738     12.22958        -0.251035      1.014826      0.105954
      7.81830      2.52209      4.75175        -0.239252     -1.012196      0.097582
      3.13642      0.02315      7.70572         0.063655     -1.140476     -1.402034
      3.13642      5.33631      0.22790         0.028526      1.130355     -1.374546
      7.83701      2.70289      7.66366         0.044235     -1.115494     -1.371593
      7.83701      2.65658      0.18583         0.029184      1.107424     -1.376640
      2.90745      1.43316     13.81466        -0.420964     -1.856921      0.232649
      2.90745      3.92630      6.33683        -0.445103      1.841439      0.238601
      7.60805      4.11290     13.77259        -0.439292     -1.842395      0.236444
      7.60805      1.24657      6.29477        -0.452457      1.840252      0.240399
      0.03630      1.97680      3.64809        -0.354249      0.217614      0.380835
      0.03630      3.38267     11.12592        -0.345884     -0.221025      0.378285
      4.73689      4.65653      3.60603        -0.344695      0.221895      0.365688
      4.73689      0.70294     11.08385        -0.336436     -0.226146      0.369206
      0.24362      2.11901      8.65952        -0.520684      0.229656     -0.325394
      0.24362      3.24046      1.18169        -0.511339     -0.220789     -0.322667
      4.94422      4.79874      8.61746        -0.534231      0.216307     -0.337808
      4.94422      0.56072      1.13963        -0.513440     -0.225590     -0.324938
      1.65572      1.14784      1.23406         0.309072     -0.227980     -0.438062
      1.65572      4.21163      8.71188         0.314760      0.229770     -0.459289
      6.35631      3.82757      1.19199         0.307215     -0.204336     -0.453355
      6.35631      1.53190      8.66982         0.314345      0.218297     -0.449224
      1.70607      1.09036     11.04375         0.641391      0.078189      0.595599
      1.70607      4.26911      3.56592         0.639932     -0.062765      0.595128
      6.40667      3.77009     11.00168         0.641778      0.078075      0.590903
      6.40667      1.58938      3.52386         0.641426     -0.071029      0.590089
      1.77685      1.08186      6.32026         0.479921     -0.215018      0.101735
      1.77685      4.27760     13.79808         0.486277      0.196407      0.093988
      6.47745      3.76160      6.27819         0.482600     -0.202731      0.098612
      6.47745      1.59787     13.75602         0.474705      0.198784      0.097240
      2.75903      1.85903      8.62379         0.079515      0.006836     -0.478108
      2.75903      3.50044      1.14596         0.085480      0.004952     -0.469989
      7.45963      4.53876      8.58172         0.074472      0.017075     -0.478217
      7.45963      0.82071      1.10390         0.078140     -0.016401     -0.478675
      2.84956      1.63791      3.68379        -0.230814     -0.286487      0.276210
      2.84956      3.72155     11.16161        -0.234856      0.289019      0.283811
      7.55015      4.31765      3.64172        -0.232365     -0.288585      0.271088
      7.55015      1.04182     11.11955        -0.239799      0.283517      0.273107
      4.61330      0.72164      6.28428        -0.442600     -0.435717      0.176370
      4.61330      4.63783     13.76211        -0.421611      0.442680      0.186433
      9.31389      3.40138      6.24222        -0.437528     -0.444798      0.176843
      9.31389      1.95809     13.72005        -0.437164      0.444794      0.189700
 -----------------------------------------------------------------------------------
    total drift:                               -0.000836     -0.083486     -0.096430


--------------------------------------------------------------------------------------------------------



  FREE ENERGIE OF THE ION-ELECTRON SYSTEM (eV)
  ---------------------------------------------------
  free  energy   TOTEN  =      -277.48373450 eV

  energy  without entropy=     -277.53598965  energy(sigma->0) =     -277.50115289
 


--------------------------------------------------------------------------------------------------------


    POTLOK:  cpu time    0.39: real time    0.64


--------------------------------------------------------------------------------------------------------


 Quasi-Newton relaxation of ions (Broydens 2nd method)
  g(Force)  = 0.259E+01   g(Stress)= 0.000E+00

 Reset! Starting new Quasi-Newton update for ions 


--------------------------------------------------------------------------------------------------------


     LOOP+:  cpu time 1978.27: real time 3544.66
    4ORBIT:  cpu time    0.00: real time    0.00

 total amount of memory used by VASP on root node   542859. kBytes
========================================================================

   base      :      30000. kBytes
   nonlr-proj:      10757. kBytes
   fftplans  :      29624. kBytes
   grid      :      59888. kBytes
   one-center:        808. kBytes
   wavefun   :     411782. kBytes
 
  
  
 General timing and accounting informations for this job:
 ========================================================
  
                  Total CPU time used (sec):     1985.755
                            User time (sec):     1985.104
                          System time (sec):        0.651
                         Elapsed time (sec):     3558.599
  
                   Maximum memory used (kb):      611892.
                   Average memory used (kb):           0.
  
                          Minor page faults:       172790
                          Major page faults:            0
                 Voluntary context switches:          574
