 running on    1 total cores
 distrk:  each k-point on    1 cores,    1 groups
 distr:  one band on    1 cores,    1 groups
 using from now: INCAR     
 vasp.5.3.5 31Mar14 (build Aug 29 2014 19:41:47) complex                        
  
 POSCAR found type information on POSCAR  Fe O  F 
 POSCAR found :  3 types and      52 ions
 scaLAPACK will be used
 LDA part: xc-table for Pade appr. of Perdew
 POSCAR, INCAR and KPOINTS ok, starting setup
 WARNING: small aliasing (wrap around) errors must be expected
 FFT: planning ...
 WAVECAR not read
 entering main loop
       N       E                     dE             d eps       ncg     rms          rms(c)
RMM:   1     0.480734431382E+04    0.48073E+04   -0.13972E+05  1800   0.136E+03
RMM:   2     0.160603882452E+04   -0.32013E+04   -0.36570E+04  1800   0.402E+02
RMM:   3     0.562606013325E+03   -0.10434E+04   -0.10595E+04  1800   0.266E+02
RMM:   4     0.139123567348E+03   -0.42348E+03   -0.36943E+03  1800   0.271E+02
RMM:   5    -0.112703026712E+03   -0.25183E+03   -0.19958E+03  1800   0.134E+02
RMM:   6    -0.230355431971E+03   -0.11765E+03   -0.90516E+02  1800   0.127E+02
RMM:   7    -0.289284365584E+03   -0.58929E+02   -0.47570E+02  1800   0.592E+01
RMM:   8    -0.313030201085E+03   -0.23746E+02   -0.19710E+02  1800   0.590E+01
RMM:   9    -0.336824291201E+03   -0.23794E+02   -0.21864E+02  5708   0.265E+01
RMM:  10    -0.337352986063E+03   -0.52869E+00   -0.93190E+00  5694   0.410E+00
RMM:  11    -0.337766487276E+03   -0.41350E+00   -0.34358E+00  5226   0.123E+00
RMM:  12    -0.337942347680E+03   -0.17586E+00   -0.15513E+00  4462   0.594E-01    0.607E+01
RMM:  13    -0.315416632769E+03    0.22526E+02   -0.47579E+02  4100   0.639E+01    0.923E+01
RMM:  14    -0.404581496502E+03   -0.89165E+02   -0.74656E+01  4750   0.152E+01    0.158E+02
RMM:  15    -0.293631168885E+03    0.11095E+03   -0.21184E+01  3862   0.132E+01    0.768E+01
RMM:  16    -0.340118685800E+03   -0.46488E+02   -0.27902E+01  3820   0.144E+01    0.141E+02
RMM:  17    -0.385057620324E+03   -0.44939E+02   -0.26853E+01  3869   0.140E+01    0.131E+02
RMM:  18    -0.348864398262E+03    0.36193E+02   -0.11196E+01  4366   0.880E+00    0.116E+02
RMM:  19    -0.330857047851E+03    0.18007E+02   -0.81413E+00  3738   0.773E+00    0.995E+01
RMM:  20    -0.347948130597E+03   -0.17091E+02   -0.13129E+01  3800   0.104E+01    0.117E+02
RMM:  21    -0.361379691180E+03   -0.13432E+02   -0.22950E+01  3767   0.136E+01    0.136E+02
RMM:  22    -0.331843071749E+03    0.29537E+02   -0.16149E+01  3846   0.115E+01    0.118E+02
RMM:  23    -0.299181661654E+03    0.32661E+02   -0.55967E+00  3715   0.672E+00    0.804E+01
RMM:  24    -0.303984399140E+03   -0.48027E+01   -0.44780E+00  3798   0.584E+00    0.947E+01
RMM:  25    -0.292392530284E+03    0.11592E+02   -0.39412E+00  3875   0.561E+00    0.761E+01
RMM:  26    -0.287686444700E+03    0.47061E+01   -0.36572E+00  3851   0.557E+00    0.676E+01
RMM:  27    -0.285786273650E+03    0.19002E+01   -0.19146E+00  3764   0.402E+00    0.540E+01
RMM:  28    -0.283144153671E+03    0.26421E+01   -0.12348E+00  3802   0.333E+00    0.520E+01
RMM:  29    -0.282376070258E+03    0.76808E+00   -0.80219E-01  3866   0.266E+00    0.522E+01
RMM:  30    -0.281209497216E+03    0.11666E+01   -0.54079E-01  3789   0.229E+00    0.424E+01
RMM:  31    -0.279669404383E+03    0.15401E+01   -0.32159E-01  3807   0.182E+00    0.303E+01
RMM:  32    -0.278925154902E+03    0.74425E+00   -0.11603E-01  3737   0.116E+00    0.268E+01
RMM:  33    -0.278721955416E+03    0.20320E+00   -0.28323E-02  3724   0.635E-01    0.242E+01
RMM:  34    -0.278817451704E+03   -0.95496E-01   -0.17129E-02  3609   0.452E-01    0.268E+01
RMM:  35    -0.278803424002E+03    0.14028E-01   -0.46576E-03  3387   0.255E-01    0.260E+01
RMM:  36    -0.278955089987E+03   -0.15167E+00   -0.13694E-02  3647   0.341E-01    0.294E+01
RMM:  37    -0.278784051104E+03    0.17104E+00   -0.26461E-02  3684   0.499E-01    0.253E+01
RMM:  38    -0.278519417268E+03    0.26463E+00   -0.17778E-02  3743   0.439E-01    0.237E+01
RMM:  39    -0.278463719460E+03    0.55698E-01   -0.64867E-02  4294   0.670E-01    0.235E+01
RMM:  40    -0.278177687733E+03    0.28603E+00   -0.14221E-01  3948   0.107E+00    0.207E+01
RMM:  41    -0.277787695565E+03    0.38999E+00   -0.24412E-01  4456   0.130E+00    0.201E+01
RMM:  42    -0.277636971067E+03    0.15072E+00   -0.94889E-02  4333   0.840E-01    0.164E+01
RMM:  43    -0.277564742016E+03    0.72229E-01   -0.31653E-02  3989   0.552E-01    0.150E+01
RMM:  44    -0.277601199848E+03   -0.36458E-01   -0.24143E-02  3828   0.454E-01    0.153E+01
RMM:  45    -0.277562188112E+03    0.39012E-01   -0.14039E-02  3688   0.384E-01    0.128E+01
RMM:  46    -0.277530946286E+03    0.31242E-01   -0.95127E-03  3770   0.309E-01    0.114E+01
RMM:  47    -0.277525514531E+03    0.54318E-02   -0.53473E-03  3702   0.243E-01    0.105E+01
RMM:  48    -0.277498387758E+03    0.27127E-01   -0.35256E-03  3699   0.191E-01    0.844E+00
RMM:  49    -0.277499230211E+03   -0.84245E-03   -0.11903E-03  3361   0.113E-01    0.817E+00
RMM:  50    -0.277492789478E+03    0.64407E-02   -0.18114E-03  3464   0.137E-01    0.689E+00
RMM:  51    -0.277489641864E+03    0.31476E-02   -0.46741E-03  3623   0.231E-01    0.487E+00
RMM:  52    -0.277489692064E+03   -0.50200E-04   -0.33981E-03  3510   0.203E-01    0.365E+00
RMM:  53    -0.277485880123E+03    0.38119E-02   -0.18431E-03  3678   0.134E-01    0.272E+00
RMM:  54    -0.277484962423E+03    0.91770E-03   -0.24617E-04  2256   0.552E-02    0.258E+00
RMM:  55    -0.277484144033E+03    0.81839E-03   -0.39886E-04  2686   0.611E-02    0.209E+00
RMM:  56    -0.277483680055E+03    0.46398E-03   -0.47800E-04  2843   0.744E-02    0.164E+00
RMM:  57    -0.277483734504E+03   -0.54449E-04   -0.16088E-04  1952   0.448E-02
   1 F= -.27748373E+03 E0= -.27750115E+03  d E =-.277484E+03
 BRION: g(F)=  0.259E+01 g(S)=  0.000E+00
