<?xml version="1.0" encoding="ISO-8859-1"?>
<modeling>
 <generator>
  <i name="program" type="string">vasp </i>
  <i name="version" type="string">5.3.5  </i>
  <i name="subversion" type="string">31Mar14 (build Aug 29 2014 19:41:47) complex                          parallel </i>
  <i name="platform" type="string">LinuxIFC </i>
  <i name="date" type="string">2019 01 22 </i>
  <i name="time" type="string">14:42:19 </i>
 </generator>
 <incar>
  <i type="string" name="SYSTEM"> tssm</i>
  <i type="int" name="ISTART">     0</i>
  <i type="string" name="PREC">normal</i>
  <i type="string" name="ALGO"> VeryFast</i>
  <i type="int" name="ISPIN">     1</i>
  <i name="AMIN">      0.01000000</i>
  <i type="int" name="ICHARG">     2</i>
  <i type="int" name="NELM">   300</i>
  <i type="int" name="IBRION">     1</i>
  <i name="EDIFF">      0.00010000</i>
  <i name="EDIFFG">      0.00100000</i>
  <i type="int" name="NSW">     1</i>
  <i type="int" name="ISIF">     2</i>
  <i type="int" name="ISYM">     0</i>
  <i name="ENCUT">    400.00000000</i>
  <i type="string" name="LREAL"> Auto</i>
  <i type="int" name="ISMEAR">     1</i>
  <i name="SIGMA">      0.20000000</i>
  <i type="logical" name="LWAVE"> F  </i>
  <i type="int" name="NELM">   300</i>
 </incar>
 <kpoints>
  <generation param="Gamma">
   <v type="int" name="divisions">       2        2        2 </v>
   <v name="usershift">      0.00000000       0.00000000       0.00000000 </v>
   <v name="genvec1">      0.50000000       0.00000000       0.00000000 </v>
   <v name="genvec2">      0.00000000       0.50000000       0.00000000 </v>
   <v name="genvec3">     -0.00000000       0.00000000       0.50000000 </v>
   <v name="shift">      0.00000000       0.00000000       0.00000000 </v>
  </generation>
  <varray name="kpointlist" >
   <v>       0.00000000       0.00000000       0.00000000 </v>
   <v>       0.50000000       0.00000000       0.00000000 </v>
   <v>       0.00000000       0.50000000       0.00000000 </v>
   <v>       0.50000000       0.50000000       0.00000000 </v>
   <v>       0.00000000       0.00000000       0.50000000 </v>
   <v>       0.50000000       0.00000000       0.50000000 </v>
   <v>       0.00000000       0.50000000       0.50000000 </v>
   <v>       0.50000000       0.50000000       0.50000000 </v>
  </varray>
  <varray name="weights" >
   <v>       0.12500000 </v>
   <v>       0.12500000 </v>
   <v>       0.12500000 </v>
   <v>       0.12500000 </v>
   <v>       0.12500000 </v>
   <v>       0.12500000 </v>
   <v>       0.12500000 </v>
   <v>       0.12500000 </v>
  </varray>
 </kpoints>
 <parameters>
  <separator name="general" >
   <i type="string" name="SYSTEM">tssm</i>
   <i type="logical" name="LCOMPAT"> F  </i>
  </separator>
  <separator name="electronic" >
   <i type="string" name="PREC">normal</i>
   <i name="ENMAX">    400.00000000</i>
   <i name="ENAUG">    613.61400000</i>
   <i name="EDIFF">      0.00010000</i>
   <i type="int" name="IALGO">    48</i>
   <i type="int" name="IWAVPR">    11</i>
   <i type="int" name="NBANDS">   225</i>
   <i name="NELECT">    376.00000000</i>
   <i type="int" name="TURBO">     0</i>
   <i type="int" name="IRESTART">     0</i>
   <i type="int" name="NREBOOT">     0</i>
   <i type="int" name="NMIN">     0</i>
   <i name="EREF">      0.00000000</i>
   <separator name="electronic smearing" >
    <i type="int" name="ISMEAR">     1</i>
    <i name="SIGMA">      0.20000000</i>
    <i name="KSPACING">      0.50000000</i>
    <i type="logical" name="KGAMMA"> T  </i>
   </separator>
   <separator name="electronic projectors" >
    <i type="logical" name="LREAL"> T  </i>
    <v name="ROPT">     -0.00050000     -0.00050000     -0.00050000</v>
    <i type="int" name="LMAXPAW">  -100</i>
    <i type="int" name="LMAXMIX">     2</i>
    <i type="logical" name="NLSPLINE"> F  </i>
   </separator>
   <separator name="electronic startup" >
    <i type="int" name="ISTART">     0</i>
    <i type="int" name="ICHARG">     2</i>
    <i type="int" name="INIWAV">     1</i>
   </separator>
   <separator name="electronic spin" >
    <i type="int" name="ISPIN">     1</i>
    <i type="logical" name="LNONCOLLINEAR"> F  </i>
    <v name="MAGMOM">      1.00000000      1.00000000      1.00000000      1.00000000      1.00000000      1.00000000      1.00000000      1.00000000      1.00000000      1.00000000      1.00000000      1.00000000      1.00000000      1.00000000      1.00000000      1.00000000      1.00000000      1.00000000      1.00000000      1.00000000
      1.00000000      1.00000000      1.00000000      1.00000000      1.00000000      1.00000000      1.00000000      1.00000000      1.00000000      1.00000000      1.00000000      1.00000000      1.00000000      1.00000000      1.00000000      1.00000000      1.00000000      1.00000000      1.00000000      1.00000000
      1.00000000      1.00000000      1.00000000      1.00000000      1.00000000      1.00000000      1.00000000      1.00000000      1.00000000      1.00000000      1.00000000      1.00000000</v>
    <i name="NUPDOWN">     -1.00000000</i>
    <i type="logical" name="LSORBIT"> F  </i>
    <v name="SAXIS">      0.00000000      0.00000000      1.00000000</v>
    <i type="logical" name="LSPIRAL"> F  </i>
    <v name="QSPIRAL">      0.00000000      0.00000000      0.00000000</v>
    <i type="logical" name="LZEROZ"> F  </i>
   </separator>
   <separator name="electronic exchange-correlation" >
    <i type="logical" name="LASPH"> F  </i>
    <i type="logical" name="LMETAGGA"> F  </i>
   </separator>
   <separator name="electronic convergence" >
    <i type="int" name="NELM">   300</i>
    <i type="int" name="NELMDL">   -12</i>
    <i type="int" name="NELMIN">     2</i>
    <i name="ENINI">    400.00000000</i>
    <separator name="electronic convergence detail" >
     <i type="logical" name="LDIAG"> T  </i>
     <i type="logical" name="LSUBROT"> F  </i>
     <i name="WEIMIN">      0.00100000</i>
     <i name="EBREAK">      0.00000011</i>
     <i name="DEPER">      0.30000000</i>
     <i type="int" name="NRMM">     4</i>
     <i name="TIME">      0.40000000</i>
    </separator>
   </separator>
   <separator name="electronic mixer" >
    <i name="AMIX">      0.40000000</i>
    <i name="BMIX">      1.00000000</i>
    <i name="AMIN">      0.01000000</i>
    <i name="AMIX_MAG">      1.60000000</i>
    <i name="BMIX_MAG">      1.00000000</i>
    <separator name="electronic mixer details" >
     <i type="int" name="IMIX">     4</i>
     <i type="int" name="MAXMIX">   -45</i>
     <i name="WC">    100.00000000</i>
     <i type="int" name="INIMIX">     1</i>
     <i type="int" name="MIXPRE">     1</i>
     <i type="int" name="MREMOVE">     5</i>
    </separator>
   </separator>
   <separator name="electronic dipolcorrection" >
    <i type="logical" name="LDIPOL"> F  </i>
    <i type="logical" name="LMONO"> F  </i>
    <i type="int" name="IDIPOL">     0</i>
    <i name="EPSILON">      1.00000000</i>
    <v name="DIPOL">   -100.00000000   -100.00000000   -100.00000000</v>
    <i name="EFIELD">      0.00000000</i>
   </separator>
  </separator>
  <separator name="grids" >
   <i type="int" name="NGX">    48</i>
   <i type="int" name="NGY">    28</i>
   <i type="int" name="NGZ">    80</i>
   <i type="int" name="NGXF">    96</i>
   <i type="int" name="NGYF">    56</i>
   <i type="int" name="NGZF">   160</i>
   <i type="logical" name="ADDGRID"> F  </i>
  </separator>
  <separator name="ionic" >
   <i type="int" name="NSW">     1</i>
   <i type="int" name="IBRION">     1</i>
   <i type="int" name="ISIF">     2</i>
   <i name="PSTRESS">      0.00000000</i>
   <i name="EDIFFG">      0.00100000</i>
   <i type="int" name="NFREE">     0</i>
   <i name="POTIM">      0.50000000</i>
   <i name="SMASS">     -3.00000000</i>
   <i name="SCALEE">      1.00000000</i>
  </separator>
  <separator name="ionic md" >
   <i name="TEBEG">      0.00010000</i>
   <i name="TEEND">      0.00010000</i>
   <i type="int" name="NBLOCK">     1</i>
   <i type="int" name="KBLOCK">     1</i>
   <i type="int" name="NPACO">   256</i>
   <i name="APACO">     16.00000000</i>
  </separator>
  <separator name="symmetry" >
   <i type="int" name="ISYM">     0</i>
   <i name="SYMPREC">      0.00001000</i>
  </separator>
  <separator name="dos" >
   <i type="logical" name="LORBIT"> F  </i>
   <v name="RWIGS">     -1.00000000     -1.00000000     -1.00000000</v>
   <i type="int" name="NEDOS">   301</i>
   <i name="EMIN">     10.00000000</i>
   <i name="EMAX">    -10.00000000</i>
   <i name="EFERMI">      0.00000000</i>
  </separator>
  <separator name="writing" >
   <i type="int" name="NWRITE">     2</i>
   <i type="logical" name="LWAVE"> F  </i>
   <i type="logical" name="LCHARG"> T  </i>
   <i type="logical" name="LPARD"> F  </i>
   <i type="logical" name="LVTOT"> F  </i>
   <i type="logical" name="LVHAR"> F  </i>
   <i type="logical" name="LELF"> F  </i>
   <i type="logical" name="LOPTICS"> F  </i>
   <v name="STM">      0.00000000      0.00000000      0.00000000      0.00000000      0.00000000      0.00000000      0.00000000</v>
  </separator>
  <separator name="performance" >
   <i type="int" name="NPAR">     1</i>
   <i type="int" name="NSIM">     4</i>
   <i type="int" name="NBLK">    -1</i>
   <i type="logical" name="LPLANE"> T  </i>
   <i type="logical" name="LSCALAPACK"> T  </i>
   <i type="logical" name="LSCAAWARE"> F  </i>
   <i type="logical" name="LSCALU"> F  </i>
   <i type="logical" name="LASYNC"> F  </i>
   <i type="logical" name="LORBITALREAL"> F  </i>
  </separator>
  <separator name="miscellaneous" >
   <i type="int" name="IDIOT">     3</i>
   <i type="logical" name="LMUSIC"> F  </i>
   <v name="POMASS">     55.84700000     16.00000000     18.99800000</v>
   <v name="DARWINR">      0.00000000      0.00000000      0.00000000</v>
   <v name="DARWINV">      1.00000000      1.00000000      1.00000000</v>
   <i type="logical" name="LCORR"> T  </i>
  </separator>
  <i type="logical" name="GGA_COMPAT"> T  </i>
  <i type="logical" name="LBERRY"> F  </i>
  <i type="int" name="ICORELEVEL">     0</i>
  <i type="logical" name="LDAU"> F  </i>
  <i type="int" name="I_CONSTRAINED_M">     0</i>
  <separator name="electronic exchange-correlation" >
   <i type="string" name="GGA">--</i>
   <i type="int" name="VOSKOWN">     0</i>
   <i type="logical" name="LHFCALC"> F  </i>
   <i type="string" name="PRECFOCK"></i>
   <i type="logical" name="LSYMGRAD"> F  </i>
   <i type="logical" name="LHFONE"> F  </i>
   <i type="logical" name="LRHFCALC"> F  </i>
   <i type="logical" name="LTHOMAS"> F  </i>
   <i type="logical" name="LMODELHF"> F  </i>
   <i name="ENCUT4O">     -1.00000000</i>
   <i type="int" name="EXXOEP">     0</i>
   <i type="int" name="FOURORBIT">     0</i>
   <i name="AEXX">      0.00000000</i>
   <i name="HFALPHA">      0.00000000</i>
   <i name="MCALPHA">      0.00000000</i>
   <i name="ALDAX">      1.00000000</i>
   <i name="AGGAX">      1.00000000</i>
   <i name="ALDAC">      1.00000000</i>
   <i name="AGGAC">      1.00000000</i>
   <i type="int" name="NKREDX">     1</i>
   <i type="int" name="NKREDY">     1</i>
   <i type="int" name="NKREDZ">     1</i>
   <i type="logical" name="SHIFTRED"> F  </i>
   <i type="logical" name="ODDONLY"> F  </i>
   <i type="logical" name="EVENONLY"> F  </i>
   <i type="int" name="LMAXFOCK">     0</i>
   <i type="int" name="NMAXFOCKAE">     0</i>
   <i type="logical" name="LFOCKAEDFT"> F  </i>
   <i name="HFSCREEN">      0.00000000</i>
   <i name="HFSCREENC">      0.00000000</i>
   <i type="int" name="NBANDSGWLOW">     0</i>
  </separator>
  <separator name="vdW DFT" >
   <i type="logical" name="LUSE_VDW"> F  </i>
   <i name="Zab_VDW">     -0.84910000</i>
   <i name="PARAM1">      0.12340000</i>
   <i name="PARAM2">      1.00000000</i>
   <i name="PARAM3">      0.00000000</i>
  </separator>
  <separator name="model GW" >
   <i type="int" name="MODEL_GW">     0</i>
   <i name="MODEL_EPS0">      8.69476215</i>
   <i name="MODEL_ALPHA">      1.00000000</i>
  </separator>
  <separator name="linear response parameters" >
   <i type="logical" name="LEPSILON"> F  </i>
   <i type="logical" name="LRPA"> F  </i>
   <i type="logical" name="LNABLA"> F  </i>
   <i type="logical" name="LVEL"> F  </i>
   <i type="int" name="KINTER">     0</i>
   <i name="CSHIFT">      0.10000000</i>
   <i name="OMEGAMAX">     -1.00000000</i>
   <i name="DEG_THRESHOLD">      0.00200000</i>
  </separator>
  <separator name="orbital magnetization" >
   <i type="logical" name="NUCIND"> F  </i>
   <v name="MAGPOS">      0.00000000      0.00000000      0.00000000</v>
   <i type="logical" name="LNICSALL"> T  </i>
   <i type="logical" name="ORBITALMAG"> F  </i>
   <i type="logical" name="LMAGBLOCH"> F  </i>
   <i type="logical" name="LCHIMAG"> F  </i>
   <i type="logical" name="LGAUGE"> T  </i>
   <i type="int" name="MAGATOM">     0</i>
   <v name="MAGDIPOL">      0.00000000      0.00000000      0.00000000</v>
   <v name="AVECCONST">      0.00000000      0.00000000      0.00000000</v>
  </separator>
  <separator name="response functions" >
   <i type="logical" name="LADDER"> F  </i>
   <i type="logical" name="LFXC"> F  </i>
   <i type="logical" name="LHARTREE"> T  </i>
   <i type="int" name="IBSE">     0</i>
   <i type="logical" name="LTCTE"> F  </i>
   <i type="logical" name="LTETE"> F  </i>
   <i type="logical" name="LTRIPLET"> F  </i>
   <i type="logical" name="LFXCEPS"> F  </i>
   <i type="logical" name="LFXHEG"> F  </i>
   <i type="logical" name="L2ORDER"> F  </i>
   <i type="logical" name="LUSEW"> F  </i>
   <i name="ENCUTGW">     -2.00000000</i>
   <i name="ENCUTGWSOFT">     -2.00000000</i>
   <i name="ENCUTLF">     -1.00000000</i>
   <i type="int" name="LMAXMP2">    -1</i>
   <i name="SCISSOR">      0.00000000</i>
   <i type="int" name="NOMEGA">     0</i>
   <i type="int" name="NOMEGAR">     0</i>
   <i type="int" name="NBANDSGW">    -1</i>
   <i type="int" name="NBANDSO">    -1</i>
   <i type="int" name="NBANDSV">    -1</i>
   <i type="int" name="NELM">   300</i>
   <i type="int" name="DIM">     3</i>
   <i type="int" name="ANTIRES">     0</i>
   <i name="OMEGAMAX">    -30.00000000</i>
   <i name="OMEGAMIN">    -30.00000000</i>
   <i name="OMEGATL">   -200.00000000</i>
   <i type="int" name="OMEGAGRID">     0</i>
   <i name="CSHIFT">     -0.10000000</i>
   <i type="logical" name="SELFENERGY"> F  </i>
   <i type="logical" name="LSPECTRAL"> F  </i>
   <i type="logical" name="ODDONLYGW"> F  </i>
   <i type="logical" name="EVENONLYGW"> F  </i>
   <i type="int" name="NKREDLFX">     1</i>
   <i type="int" name="NKREDLFY">     1</i>
   <i type="int" name="NKREDLFZ">     1</i>
   <i type="int" name="MAXMEM">  1800</i>
   <i type="int" name="TELESCOPE">     0</i>
   <i type="int" name="TAUPAR">     1</i>
  </separator>
  <separator name="External order field" >
   <i name="OFIELD_KAPPA">      0.00000000</i>
   <v name="OFIELD_K">      0.00000000      0.00000000      0.00000000</v>
   <i name="OFIELD_Q6_NEAR">      0.00000000</i>
   <i name="OFIELD_Q6_FAR">      0.00000000</i>
   <i name="OFIELD_A">      0.00000000</i>
  </separator>
 </parameters>
 <atominfo>
  <atoms>      52 </atoms>
  <types>       3 </types>
  <array name="atoms" >
   <dimension dim="1">ion</dimension>
   <field type="string">element</field>
   <field type="int">atomtype</field>
   <set>
    <rc><c>Fe</c><c>   1</c></rc>
    <rc><c>Fe</c><c>   1</c></rc>
    <rc><c>Fe</c><c>   1</c></rc>
    <rc><c>Fe</c><c>   1</c></rc>
    <rc><c>Fe</c><c>   1</c></rc>
    <rc><c>Fe</c><c>   1</c></rc>
    <rc><c>Fe</c><c>   1</c></rc>
    <rc><c>Fe</c><c>   1</c></rc>
    <rc><c>Fe</c><c>   1</c></rc>
    <rc><c>Fe</c><c>   1</c></rc>
    <rc><c>Fe</c><c>   1</c></rc>
    <rc><c>Fe</c><c>   1</c></rc>
    <rc><c>Fe</c><c>   1</c></rc>
    <rc><c>Fe</c><c>   1</c></rc>
    <rc><c>Fe</c><c>   1</c></rc>
    <rc><c>Fe</c><c>   1</c></rc>
    <rc><c>O </c><c>   2</c></rc>
    <rc><c>O </c><c>   2</c></rc>
    <rc><c>O </c><c>   2</c></rc>
    <rc><c>O </c><c>   2</c></rc>
    <rc><c>F </c><c>   3</c></rc>
    <rc><c>F </c><c>   3</c></rc>
    <rc><c>F </c><c>   3</c></rc>
    <rc><c>F </c><c>   3</c></rc>
    <rc><c>F </c><c>   3</c></rc>
    <rc><c>F </c><c>   3</c></rc>
    <rc><c>F </c><c>   3</c></rc>
    <rc><c>F </c><c>   3</c></rc>
    <rc><c>F </c><c>   3</c></rc>
    <rc><c>F </c><c>   3</c></rc>
    <rc><c>F </c><c>   3</c></rc>
    <rc><c>F </c><c>   3</c></rc>
    <rc><c>F </c><c>   3</c></rc>
    <rc><c>F </c><c>   3</c></rc>
    <rc><c>F </c><c>   3</c></rc>
    <rc><c>F </c><c>   3</c></rc>
    <rc><c>F </c><c>   3</c></rc>
    <rc><c>F </c><c>   3</c></rc>
    <rc><c>F </c><c>   3</c></rc>
    <rc><c>F </c><c>   3</c></rc>
    <rc><c>F </c><c>   3</c></rc>
    <rc><c>F </c><c>   3</c></rc>
    <rc><c>F </c><c>   3</c></rc>
    <rc><c>F </c><c>   3</c></rc>
    <rc><c>F </c><c>   3</c></rc>
    <rc><c>F </c><c>   3</c></rc>
    <rc><c>F </c><c>   3</c></rc>
    <rc><c>F </c><c>   3</c></rc>
    <rc><c>F </c><c>   3</c></rc>
    <rc><c>F </c><c>   3</c></rc>
    <rc><c>F </c><c>   3</c></rc>
    <rc><c>F </c><c>   3</c></rc>
   </set>
  </array>
  <array name="atomtypes" >
   <dimension dim="1">type</dimension>
   <field type="int">atomspertype</field>
   <field type="string">element</field>
   <field>mass</field>
   <field>valence</field>
   <field type="string">pseudopotential</field>
   <set>
    <rc><c>  16</c><c>Fe</c><c>     55.84700000</c><c>      8.00000000</c><c>  PAW_PBE Fe 06Sep2000                  </c></rc>
    <rc><c>   4</c><c>O </c><c>     16.00000000</c><c>      6.00000000</c><c>  PAW_PBE O 08Apr2002                   </c></rc>
    <rc><c>  32</c><c>F </c><c>     18.99800000</c><c>      7.00000000</c><c>  PAW_PBE F 08Apr2002                   </c></rc>
   </set>
  </array>
 </atominfo>
 <structure name="initialpos" >
  <crystal>
   <varray name="basis" >
    <v>       9.40119100       0.00000000      -0.08412900 </v>
    <v>       0.00000000       5.35946700       0.00000000 </v>
    <v>       0.00000000       0.00000000      14.95565100 </v>
   </varray>
   <i name="volume">    753.54605297 </i>
   <varray name="rec_basis" >
    <v>       0.10636950       0.00000000       0.00000000 </v>
    <v>       0.00000000       0.18658572       0.00000000 </v>
    <v>       0.00059835       0.00000000       0.06686436 </v>
   </varray>
  </crystal>
  <varray name="positions" >
   <v>       0.16411200       0.48397600       0.17995900 </v>
   <v>       0.16411200       0.51602400       0.67995900 </v>
   <v>       0.66411200       0.98397600       0.17995900 </v>
   <v>       0.66411200       0.01602400       0.67995900 </v>
   <v>       0.17533200       0.47285200       0.97303200 </v>
   <v>       0.17533200       0.52714800       0.47303200 </v>
   <v>       0.67533200       0.97285200       0.97303200 </v>
   <v>       0.67533200       0.02714800       0.47303200 </v>
   <v>       0.33162900       0.02941400       0.82240100 </v>
   <v>       0.33162900       0.97058600       0.32240100 </v>
   <v>       0.83162900       0.52941400       0.82240100 </v>
   <v>       0.83162900       0.47058600       0.32240100 </v>
   <v>       0.33361900       0.00432000       0.51711500 </v>
   <v>       0.33361900       0.99568000       0.01711500 </v>
   <v>       0.83361900       0.50432000       0.51711500 </v>
   <v>       0.83361900       0.49568000       0.01711500 </v>
   <v>       0.30926400       0.26740800       0.92544800 </v>
   <v>       0.30926400       0.73259200       0.42544800 </v>
   <v>       0.80926400       0.76740800       0.92544800 </v>
   <v>       0.80926400       0.23259200       0.42544800 </v>
   <v>       0.00386100       0.36884200       0.24394900 </v>
   <v>       0.00386100       0.63115800       0.74394900 </v>
   <v>       0.50386100       0.86884200       0.24394900 </v>
   <v>       0.50386100       0.13115800       0.74394900 </v>
   <v>       0.02591400       0.39537700       0.57915900 </v>
   <v>       0.02591400       0.60462300       0.07915900 </v>
   <v>       0.52591400       0.89537700       0.57915900 </v>
   <v>       0.52591400       0.10462300       0.07915900 </v>
   <v>       0.17611800       0.21417000       0.08350500 </v>
   <v>       0.17611800       0.78583000       0.58350500 </v>
   <v>       0.67611800       0.71417000       0.08350500 </v>
   <v>       0.67611800       0.28583000       0.58350500 </v>
   <v>       0.18147400       0.20344500       0.73945400 </v>
   <v>       0.18147400       0.79655500       0.23945400 </v>
   <v>       0.68147400       0.70344500       0.73945400 </v>
   <v>       0.68147400       0.29655500       0.23945400 </v>
   <v>       0.18900300       0.20186000       0.42366300 </v>
   <v>       0.18900300       0.79814000       0.92366300 </v>
   <v>       0.68900300       0.70186000       0.42366300 </v>
   <v>       0.68900300       0.29814000       0.92366300 </v>
   <v>       0.29347700       0.34686800       0.57827500 </v>
   <v>       0.29347700       0.65313200       0.07827500 </v>
   <v>       0.79347700       0.84686800       0.57827500 </v>
   <v>       0.79347700       0.15313200       0.07827500 </v>
   <v>       0.30310600       0.30561100       0.24801900 </v>
   <v>       0.30310600       0.69438900       0.74801900 </v>
   <v>       0.80310600       0.80561100       0.24801900 </v>
   <v>       0.80310600       0.19438900       0.74801900 </v>
   <v>       0.49071400       0.13464800       0.42295500 </v>
   <v>       0.49071400       0.86535200       0.92295500 </v>
   <v>       0.99071400       0.63464800       0.42295500 </v>
   <v>       0.99071400       0.36535200       0.92295500 </v>
  </varray>
 </structure>
 <calculation>
  <scstep>
   <time name="diag">    6.12   12.27</time>
   <time name="diis">   11.20   20.08</time>
   <time name="orth">    1.89    3.46</time>
   <time name="total">   19.55   36.32</time>
   <energy>
    <i name="alphaZ">   1136.56246079 </i>
    <i name="ewald"> -19713.34295847 </i>
    <i name="hartreedc"> -12176.76064537 </i>
    <i name="XCdc">   1336.14060116 </i>
    <i name="pawpsdc">  27518.38149996 </i>
    <i name="pawaedc"> -27812.06485035 </i>
    <i name="eentropy">     -0.02654643 </i>
    <i name="bandstr">   2178.10689094 </i>
    <i name="atom">  32340.34786160 </i>
    <i name="e_fr_energy">   4807.34431382 </i>
    <i name="e_wo_entrp">   4807.37086026 </i>
    <i name="e_0_energy">   4807.35316263 </i>
   </energy>
  </scstep>
  <scstep>
   <time name="diag">    6.13   11.16</time>
   <time name="diis">   12.00   23.10</time>
   <time name="orth">    1.91    3.82</time>
   <time name="total">   20.05   38.09</time>
   <energy>
    <i name="e_fr_energy">   1606.03882452 </i>
    <i name="e_wo_entrp">   1606.06485243 </i>
    <i name="e_0_energy">   1606.04750049 </i>
   </energy>
  </scstep>
  <scstep>
   <time name="diag">    6.42   12.85</time>
   <time name="diis">   12.23   24.46</time>
   <time name="orth">    1.91    3.84</time>
   <time name="total">   20.57   41.15</time>
   <energy>
    <i name="e_fr_energy">    562.60601332 </i>
    <i name="e_wo_entrp">    562.37987077 </i>
    <i name="e_0_energy">    562.53063247 </i>
   </energy>
  </scstep>
  <scstep>
   <time name="diag">    6.18   11.35</time>
   <time name="diis">   12.09   23.76</time>
   <time name="orth">    1.93    3.85</time>
   <time name="total">   20.20   38.98</time>
   <energy>
    <i name="e_fr_energy">    139.12356735 </i>
    <i name="e_wo_entrp">    139.07490490 </i>
    <i name="e_0_energy">    139.10734653 </i>
   </energy>
  </scstep>
  <scstep>
   <time name="diag">    6.36   12.72</time>
   <time name="diis">   12.09   24.02</time>
   <time name="orth">    1.94    3.89</time>
   <time name="total">   20.39   40.64</time>
   <energy>
    <i name="e_fr_energy">   -112.70302671 </i>
    <i name="e_wo_entrp">   -112.76325148 </i>
    <i name="e_0_energy">   -112.72310164 </i>
   </energy>
  </scstep>
  <scstep>
   <time name="diag">    6.24   12.27</time>
   <time name="diis">   11.93   23.67</time>
   <time name="orth">    1.94    3.88</time>
   <time name="total">   20.11   39.84</time>
   <energy>
    <i name="e_fr_energy">   -230.35543197 </i>
    <i name="e_wo_entrp">   -230.44179175 </i>
    <i name="e_0_energy">   -230.38421856 </i>
   </energy>
  </scstep>
  <scstep>
   <time name="diag">    6.26   12.19</time>
   <time name="diis">   12.31   24.48</time>
   <time name="orth">    1.91    3.32</time>
   <time name="total">   20.49   40.00</time>
   <energy>
    <i name="e_fr_energy">   -289.28436558 </i>
    <i name="e_wo_entrp">   -289.36714039 </i>
    <i name="e_0_energy">   -289.31195719 </i>
   </energy>
  </scstep>
  <scstep>
   <time name="diag">    6.62   13.25</time>
   <time name="diis">   12.84   25.55</time>
   <time name="orth">    1.94    3.90</time>
   <time name="total">   21.41   42.71</time>
   <energy>
    <i name="e_fr_energy">   -313.03020109 </i>
    <i name="e_wo_entrp">   -313.09420542 </i>
    <i name="e_0_energy">   -313.05153586 </i>
   </energy>
  </scstep>
  <scstep>
   <time name="diag">    6.43   12.86</time>
   <time name="diis">   37.08   71.86</time>
   <time name="orth">    1.95    3.91</time>
   <time name="total">   45.47   88.65</time>
   <energy>
    <i name="e_fr_energy">   -336.82429120 </i>
    <i name="e_wo_entrp">   -336.85179229 </i>
    <i name="e_0_energy">   -336.83345823 </i>
   </energy>
  </scstep>
  <scstep>
   <time name="diag">    6.38    8.98</time>
   <time name="diis">   37.96   67.34</time>
   <time name="orth">    2.00    3.98</time>
   <time name="total">   46.34   80.31</time>
   <energy>
    <i name="e_fr_energy">   -337.35298606 </i>
    <i name="e_wo_entrp">   -337.37198345 </i>
    <i name="e_0_energy">   -337.35931853 </i>
   </energy>
  </scstep>
  <scstep>
   <time name="diag">    6.74   12.95</time>
   <time name="diis">   35.93   70.48</time>
   <time name="orth">    1.90    3.79</time>
   <time name="total">   44.57   87.23</time>
   <energy>
    <i name="e_fr_energy">   -337.76648728 </i>
    <i name="e_wo_entrp">   -337.77706607 </i>
    <i name="e_0_energy">   -337.77001354 </i>
   </energy>
  </scstep>
  <scstep>
   <time name="diag">    6.14   11.71</time>
   <time name="diis">   29.21   56.97</time>
   <time name="orth">    1.89    3.55</time>
   <time name="total">   39.25   76.25</time>
   <energy>
    <i name="e_fr_energy">   -337.94234768 </i>
    <i name="e_wo_entrp">   -337.95187871 </i>
    <i name="e_0_energy">   -337.94552469 </i>
   </energy>
  </scstep>
  <scstep>
   <time name="diag">    6.39   11.68</time>
   <time name="diis">   28.04   55.92</time>
   <time name="orth">    2.04    4.07</time>
   <time name="total">   38.93   76.59</time>
   <energy>
    <i name="e_fr_energy">   -315.41663277 </i>
    <i name="e_wo_entrp">   -315.19540072 </i>
    <i name="e_0_energy">   -315.34288875 </i>
   </energy>
  </scstep>
  <scstep>
   <time name="diag">    6.99   13.98</time>
   <time name="diis">   31.53   54.14</time>
   <time name="orth">    1.94    3.88</time>
   <time name="total">   42.92   76.92</time>
   <energy>
    <i name="e_fr_energy">   -404.58149650 </i>
    <i name="e_wo_entrp">   -404.14794119 </i>
    <i name="e_0_energy">   -404.43697806 </i>
   </energy>
  </scstep>
  <scstep>
   <time name="diag">    6.56   12.68</time>
   <time name="diis">   24.95   49.51</time>
   <time name="orth">    1.94    3.86</time>
   <time name="total">   35.84   70.35</time>
   <energy>
    <i name="e_fr_energy">   -293.63116889 </i>
    <i name="e_wo_entrp">   -293.54191264 </i>
    <i name="e_0_energy">   -293.60141680 </i>
   </energy>
  </scstep>
  <scstep>
   <time name="diag">    6.38   12.77</time>
   <time name="diis">   24.64   48.58</time>
   <time name="orth">    1.96    3.92</time>
   <time name="total">   35.38   69.82</time>
   <energy>
    <i name="e_fr_energy">   -340.11868580 </i>
    <i name="e_wo_entrp">   -340.12791516 </i>
    <i name="e_0_energy">   -340.12176225 </i>
   </energy>
  </scstep>
  <scstep>
   <time name="diag">    6.42   12.21</time>
   <time name="diis">   25.24   40.32</time>
   <time name="orth">    2.03    4.06</time>
   <time name="total">   36.17   61.41</time>
   <energy>
    <i name="e_fr_energy">   -385.05762032 </i>
    <i name="e_wo_entrp">   -384.90513269 </i>
    <i name="e_0_energy">   -385.00679111 </i>
   </energy>
  </scstep>
  <scstep>
   <time name="diag">    6.77   13.43</time>
   <time name="diis">   30.13   58.22</time>
   <time name="orth">    1.91    3.65</time>
   <time name="total">   41.19   78.09</time>
   <energy>
    <i name="e_fr_energy">   -348.86439826 </i>
    <i name="e_wo_entrp">   -348.85452814 </i>
    <i name="e_0_energy">   -348.86110822 </i>
   </energy>
  </scstep>
  <scstep>
   <time name="diag">    6.21   10.10</time>
   <time name="diis">   23.68   43.55</time>
   <time name="orth">    1.94    3.64</time>
   <time name="total">   34.20   61.77</time>
   <energy>
    <i name="e_fr_energy">   -330.85704785 </i>
    <i name="e_wo_entrp">   -330.84921125 </i>
    <i name="e_0_energy">   -330.85443565 </i>
   </energy>
  </scstep>
  <scstep>
   <time name="diag">    6.53   12.20</time>
   <time name="diis">   23.85   41.48</time>
   <time name="orth">    1.92    3.73</time>
   <time name="total">   34.68   61.83</time>
   <energy>
    <i name="e_fr_energy">   -347.94813060 </i>
    <i name="e_wo_entrp">   -347.98079086 </i>
    <i name="e_0_energy">   -347.95901735 </i>
   </energy>
  </scstep>
  <scstep>
   <time name="diag">    6.56   11.66</time>
   <time name="diis">   27.79   44.98</time>
   <time name="orth">    2.03    3.66</time>
   <time name="total">   38.82   64.86</time>
   <energy>
    <i name="e_fr_energy">   -361.37969118 </i>
    <i name="e_wo_entrp">   -361.33392720 </i>
    <i name="e_0_energy">   -361.36443652 </i>
   </energy>
  </scstep>
  <scstep>
   <time name="diag">    6.77   12.55</time>
   <time name="diis">   25.04   46.69</time>
   <time name="orth">    1.97    3.79</time>
   <time name="total">   36.25   67.21</time>
   <energy>
    <i name="e_fr_energy">   -331.84307175 </i>
    <i name="e_wo_entrp">   -331.88166671 </i>
    <i name="e_0_energy">   -331.85593674 </i>
   </energy>
  </scstep>
  <scstep>
   <time name="diag">    6.44   11.50</time>
   <time name="diis">   23.30   43.12</time>
   <time name="orth">    1.91    3.45</time>
   <time name="total">   34.04   62.49</time>
   <energy>
    <i name="e_fr_energy">   -299.18166165 </i>
    <i name="e_wo_entrp">   -299.16748950 </i>
    <i name="e_0_energy">   -299.17693760 </i>
   </energy>
  </scstep>
  <scstep>
   <time name="diag">    6.32   11.35</time>
   <time name="diis">   24.61   45.85</time>
   <time name="orth">    1.94    3.49</time>
   <time name="total">   35.26   65.31</time>
   <energy>
    <i name="e_fr_energy">   -303.98439914 </i>
    <i name="e_wo_entrp">   -304.05347148 </i>
    <i name="e_0_energy">   -304.00742325 </i>
   </energy>
  </scstep>
  <scstep>
   <time name="diag">    6.32   12.17</time>
   <time name="diis">   26.68   47.84</time>
   <time name="orth">    2.01    3.66</time>
   <time name="total">   37.43   67.86</time>
   <energy>
    <i name="e_fr_energy">   -292.39253028 </i>
    <i name="e_wo_entrp">   -292.44671391 </i>
    <i name="e_0_energy">   -292.41059149 </i>
   </energy>
  </scstep>
  <scstep>
   <time name="diag">    6.81   12.83</time>
   <time name="diis">   25.08   47.54</time>
   <time name="orth">    1.88    3.77</time>
   <time name="total">   36.15   68.72</time>
   <energy>
    <i name="e_fr_energy">   -287.68644470 </i>
    <i name="e_wo_entrp">   -287.66686364 </i>
    <i name="e_0_energy">   -287.67991768 </i>
   </energy>
  </scstep>
  <scstep>
   <time name="diag">    6.04    6.06</time>
   <time name="diis">   23.44   23.48</time>
   <time name="orth">    1.91    1.91</time>
   <time name="total">   33.72   34.06</time>
   <energy>
    <i name="e_fr_energy">   -285.78627365 </i>
    <i name="e_wo_entrp">   -285.70077866 </i>
    <i name="e_0_energy">   -285.75777532 </i>
   </energy>
  </scstep>
  <scstep>
   <time name="diag">    6.24   11.09</time>
   <time name="diis">   23.91   30.77</time>
   <time name="orth">    1.92    3.42</time>
   <time name="total">   34.49   49.80</time>
   <energy>
    <i name="e_fr_energy">   -283.14415367 </i>
    <i name="e_wo_entrp">   -283.18817747 </i>
    <i name="e_0_energy">   -283.15882827 </i>
   </energy>
  </scstep>
  <scstep>
   <time name="diag">    6.73   11.67</time>
   <time name="diis">   26.73   40.02</time>
   <time name="orth">    1.98    2.67</time>
   <time name="total">   37.91   58.85</time>
   <energy>
    <i name="e_fr_energy">   -282.37607026 </i>
    <i name="e_wo_entrp">   -282.48785975 </i>
    <i name="e_0_energy">   -282.41333342 </i>
   </energy>
  </scstep>
  <scstep>
   <time name="diag">    6.60   10.86</time>
   <time name="diis">   24.54   44.88</time>
   <time name="orth">    1.94    3.89</time>
   <time name="total">   35.47   63.88</time>
   <energy>
    <i name="e_fr_energy">   -281.20949722 </i>
    <i name="e_wo_entrp">   -281.20056387 </i>
    <i name="e_0_energy">   -281.20651943 </i>
   </energy>
  </scstep>
  <scstep>
   <time name="diag">    6.51   10.82</time>
   <time name="diis">   24.70   39.10</time>
   <time name="orth">    1.94    3.57</time>
   <time name="total">   35.60   58.27</time>
   <energy>
    <i name="e_fr_energy">   -279.66940438 </i>
    <i name="e_wo_entrp">   -279.67354808 </i>
    <i name="e_0_energy">   -279.67078561 </i>
   </energy>
  </scstep>
  <scstep>
   <time name="diag">    6.34   11.00</time>
   <time name="diis">   23.30   43.56</time>
   <time name="orth">    1.96    3.72</time>
   <time name="total">   34.02   62.75</time>
   <energy>
    <i name="e_fr_energy">   -278.92515490 </i>
    <i name="e_wo_entrp">   -278.92645144 </i>
    <i name="e_0_energy">   -278.92558708 </i>
   </energy>
  </scstep>
  <scstep>
   <time name="diag">    6.48   11.91</time>
   <time name="diis">   23.99   44.59</time>
   <time name="orth">    2.01    4.03</time>
   <time name="total">   34.93   65.29</time>
   <energy>
    <i name="e_fr_energy">   -278.72195542 </i>
    <i name="e_wo_entrp">   -278.70356824 </i>
    <i name="e_0_energy">   -278.71582636 </i>
   </energy>
  </scstep>
  <scstep>
   <time name="diag">    6.82   13.66</time>
   <time name="diis">   26.15   50.56</time>
   <time name="orth">    1.95    3.73</time>
   <time name="total">   37.36   72.80</time>
   <energy>
    <i name="e_fr_energy">   -278.81745170 </i>
    <i name="e_wo_entrp">   -278.78553832 </i>
    <i name="e_0_energy">   -278.80681391 </i>
   </energy>
  </scstep>
  <scstep>
   <time name="diag">    6.31   12.20</time>
   <time name="diis">   21.94   42.09</time>
   <time name="orth">    1.97    3.93</time>
   <time name="total">   32.65   63.08</time>
   <energy>
    <i name="e_fr_energy">   -278.80342400 </i>
    <i name="e_wo_entrp">   -278.77622047 </i>
    <i name="e_0_energy">   -278.79435616 </i>
   </energy>
  </scstep>
  <scstep>
   <time name="diag">    6.49   12.99</time>
   <time name="diis">   24.09   45.52</time>
   <time name="orth">    2.00    3.79</time>
   <time name="total">   35.02   67.19</time>
   <energy>
    <i name="e_fr_energy">   -278.95508999 </i>
    <i name="e_wo_entrp">   -278.90470069 </i>
    <i name="e_0_energy">   -278.93829355 </i>
   </energy>
  </scstep>
  <scstep>
   <time name="diag">    6.88   11.98</time>
   <time name="diis">   26.57   28.82</time>
   <time name="orth">    1.97    1.98</time>
   <time name="total">   37.91   45.69</time>
   <energy>
    <i name="e_fr_energy">   -278.78405110 </i>
    <i name="e_wo_entrp">   -278.78785648 </i>
    <i name="e_0_energy">   -278.78531956 </i>
   </energy>
  </scstep>
  <scstep>
   <time name="diag">    6.62    8.17</time>
   <time name="diis">   24.20   40.43</time>
   <time name="orth">    1.95    3.90</time>
   <time name="total">   35.23   57.03</time>
   <energy>
    <i name="e_fr_energy">   -278.51941727 </i>
    <i name="e_wo_entrp">   -278.51470200 </i>
    <i name="e_0_energy">   -278.51784551 </i>
   </energy>
  </scstep>
  <scstep>
   <time name="diag">    6.54   12.43</time>
   <time name="diis">   27.71   55.12</time>
   <time name="orth">    1.95    3.29</time>
   <time name="total">   38.63   73.66</time>
   <energy>
    <i name="e_fr_energy">   -278.46371946 </i>
    <i name="e_wo_entrp">   -278.44888703 </i>
    <i name="e_0_energy">   -278.45877532 </i>
   </energy>
  </scstep>
  <scstep>
   <time name="diag">    6.35    7.51</time>
   <time name="diis">   25.62   51.01</time>
   <time name="orth">    2.02    4.02</time>
   <time name="total">   36.49   67.21</time>
   <energy>
    <i name="e_fr_energy">   -278.17768773 </i>
    <i name="e_wo_entrp">   -278.17369017 </i>
    <i name="e_0_energy">   -278.17635521 </i>
   </energy>
  </scstep>
  <scstep>
   <time name="diag">    6.95   13.77</time>
   <time name="diis">   32.58   60.89</time>
   <time name="orth">    1.97    3.94</time>
   <time name="total">   43.98   83.58</time>
   <energy>
    <i name="e_fr_energy">   -277.78769556 </i>
    <i name="e_wo_entrp">   -277.79310279 </i>
    <i name="e_0_energy">   -277.78949797 </i>
   </energy>
  </scstep>
  <scstep>
   <time name="diag">    6.33   12.65</time>
   <time name="diis">   26.62   53.14</time>
   <time name="orth">    1.91    3.83</time>
   <time name="total">   37.28   74.46</time>
   <energy>
    <i name="e_fr_energy">   -277.63697107 </i>
    <i name="e_wo_entrp">   -277.62855529 </i>
    <i name="e_0_energy">   -277.63416581 </i>
   </energy>
  </scstep>
  <scstep>
   <time name="diag">    6.42   12.85</time>
   <time name="diis">   29.09   48.14</time>
   <time name="orth">    1.96    1.96</time>
   <time name="total">   39.86   65.67</time>
   <energy>
    <i name="e_fr_energy">   -277.56474202 </i>
    <i name="e_wo_entrp">   -277.56756155 </i>
    <i name="e_0_energy">   -277.56568186 </i>
   </energy>
  </scstep>
  <scstep>
   <time name="diag">    6.47    6.47</time>
   <time name="diis">   24.83   24.85</time>
   <time name="orth">    1.91    1.91</time>
   <time name="total">   35.65   35.66</time>
   <energy>
    <i name="e_fr_energy">   -277.60119985 </i>
    <i name="e_wo_entrp">   -277.57779172 </i>
    <i name="e_0_energy">   -277.59339714 </i>
   </energy>
  </scstep>
  <scstep>
   <time name="diag">    6.13    6.13</time>
   <time name="diis">   23.40   35.89</time>
   <time name="orth">    1.92    3.84</time>
   <time name="total">   33.87   50.34</time>
   <energy>
    <i name="e_fr_energy">   -277.56218811 </i>
    <i name="e_wo_entrp">   -277.54946818 </i>
    <i name="e_0_energy">   -277.55794813 </i>
   </energy>
  </scstep>
  <scstep>
   <time name="diag">    6.23   11.56</time>
   <time name="diis">   23.58   45.97</time>
   <time name="orth">    1.93    3.87</time>
   <time name="total">   34.14   65.69</time>
   <energy>
    <i name="e_fr_energy">   -277.53094629 </i>
    <i name="e_wo_entrp">   -277.53004069 </i>
    <i name="e_0_energy">   -277.53064442 </i>
   </energy>
  </scstep>
  <scstep>
   <time name="diag">    6.35   12.50</time>
   <time name="diis">   23.83   43.19</time>
   <time name="orth">    1.99    3.29</time>
   <time name="total">   34.63   63.75</time>
   <energy>
    <i name="e_fr_energy">   -277.52551453 </i>
    <i name="e_wo_entrp">   -277.52552434 </i>
    <i name="e_0_energy">   -277.52551780 </i>
   </energy>
  </scstep>
  <scstep>
   <time name="diag">    6.58   13.17</time>
   <time name="diis">   24.05   42.99</time>
   <time name="orth">    1.94    3.89</time>
   <time name="total">   35.07   65.05</time>
   <energy>
    <i name="e_fr_energy">   -277.49838776 </i>
    <i name="e_wo_entrp">   -277.51344344 </i>
    <i name="e_0_energy">   -277.50340632 </i>
   </energy>
  </scstep>
  <scstep>
   <time name="diag">    6.35   11.91</time>
   <time name="diis">   22.14   40.78</time>
   <time name="orth">    1.94    3.88</time>
   <time name="total">   32.85   61.21</time>
   <energy>
    <i name="e_fr_energy">   -277.49923021 </i>
    <i name="e_wo_entrp">   -277.51284283 </i>
    <i name="e_0_energy">   -277.50376775 </i>
   </energy>
  </scstep>
  <scstep>
   <time name="diag">    6.27   11.06</time>
   <time name="diis">   23.87   45.39</time>
   <time name="orth">    2.01    4.04</time>
   <time name="total">   34.66   65.51</time>
   <energy>
    <i name="e_fr_energy">   -277.49278948 </i>
    <i name="e_wo_entrp">   -277.51772254 </i>
    <i name="e_0_energy">   -277.50110050 </i>
   </energy>
  </scstep>
  <scstep>
   <time name="diag">    6.78   13.19</time>
   <time name="diis">   24.97   49.33</time>
   <time name="orth">    1.99    3.47</time>
   <time name="total">   36.24   70.02</time>
   <energy>
    <i name="e_fr_energy">   -277.48964186 </i>
    <i name="e_wo_entrp">   -277.52324068 </i>
    <i name="e_0_energy">   -277.50084147 </i>
   </energy>
  </scstep>
  <scstep>
   <time name="diag">    6.79   13.34</time>
   <time name="diis">   25.75   50.56</time>
   <time name="orth">    2.02    4.04</time>
   <time name="total">   37.15   73.10</time>
   <energy>
    <i name="e_fr_energy">   -277.48969206 </i>
    <i name="e_wo_entrp">   -277.53049485 </i>
    <i name="e_0_energy">   -277.50329299 </i>
   </energy>
  </scstep>
  <scstep>
   <time name="diag">    6.43   11.55</time>
   <time name="diis">   23.89   42.34</time>
   <time name="orth">    1.93    3.48</time>
   <time name="total">   34.73   62.33</time>
   <energy>
    <i name="e_fr_energy">   -277.48588012 </i>
    <i name="e_wo_entrp">   -277.53217282 </i>
    <i name="e_0_energy">   -277.50131102 </i>
   </energy>
  </scstep>
  <scstep>
   <time name="diag">    6.23    8.70</time>
   <time name="diis">   14.64   17.72</time>
   <time name="orth">    1.95    2.81</time>
   <time name="total">   25.30   34.04</time>
   <energy>
    <i name="e_fr_energy">   -277.48496242 </i>
    <i name="e_wo_entrp">   -277.53200548 </i>
    <i name="e_0_energy">   -277.50064344 </i>
   </energy>
  </scstep>
  <scstep>
   <time name="diag">    6.54   12.46</time>
   <time name="diis">   17.35   28.45</time>
   <time name="orth">    1.96    3.85</time>
   <time name="total">   28.33   49.67</time>
   <energy>
    <i name="e_fr_energy">   -277.48414403 </i>
    <i name="e_wo_entrp">   -277.53362653 </i>
    <i name="e_0_energy">   -277.50063820 </i>
   </energy>
  </scstep>
  <scstep>
   <time name="diag">    6.58   13.08</time>
   <time name="diis">   18.63   36.07</time>
   <time name="orth">    1.94    3.42</time>
   <time name="total">   29.60   56.88</time>
   <energy>
    <i name="e_fr_energy">   -277.48368005 </i>
    <i name="e_wo_entrp">   -277.53637112 </i>
    <i name="e_0_energy">   -277.50124374 </i>
   </energy>
  </scstep>
  <scstep>
   <time name="diag">    6.43   12.74</time>
   <time name="diis">   13.56   26.28</time>
   <time name="orth">    1.96    3.92</time>
   <time name="total">   22.33   43.70</time>
   <energy>
    <i name="alphaZ">   1136.56246079 </i>
    <i name="ewald"> -19713.34295847 </i>
    <i name="hartreedc"> -12320.85134521 </i>
    <i name="XCdc">   1356.27647161 </i>
    <i name="pawpsdc">  32542.80430127 </i>
    <i name="pawaedc"> -32846.96675425 </i>
    <i name="eentropy">      0.05225515 </i>
    <i name="bandstr">  -2772.36602699 </i>
    <i name="atom">  32340.34786160 </i>
    <i name="e_fr_energy">   -277.48373450 </i>
    <i name="e_wo_entrp">   -277.53598965 </i>
    <i name="e_0_energy">   -277.50115289 </i>
   </energy>
  </scstep>
  <structure>
   <crystal>
    <varray name="basis" >
     <v>       9.40119100       0.00000000      -0.08412900 </v>
     <v>       0.00000000       5.35946700       0.00000000 </v>
     <v>       0.00000000       0.00000000      14.95565100 </v>
    </varray>
    <i name="volume">    753.54605297 </i>
    <varray name="rec_basis" >
     <v>       0.10636950       0.00000000       0.00000000 </v>
     <v>       0.00000000       0.18658572       0.00000000 </v>
     <v>       0.00059835       0.00000000       0.06686436 </v>
    </varray>
   </crystal>
   <varray name="positions" >
    <v>       0.16411200       0.48397600       0.17995900 </v>
    <v>       0.16411200       0.51602400       0.67995900 </v>
    <v>       0.66411200       0.98397600       0.17995900 </v>
    <v>       0.66411200       0.01602400       0.67995900 </v>
    <v>       0.17533200       0.47285200       0.97303200 </v>
    <v>       0.17533200       0.52714800       0.47303200 </v>
    <v>       0.67533200       0.97285200       0.97303200 </v>
    <v>       0.67533200       0.02714800       0.47303200 </v>
    <v>       0.33162900       0.02941400       0.82240100 </v>
    <v>       0.33162900       0.97058600       0.32240100 </v>
    <v>       0.83162900       0.52941400       0.82240100 </v>
    <v>       0.83162900       0.47058600       0.32240100 </v>
    <v>       0.33361900       0.00432000       0.51711500 </v>
    <v>       0.33361900       0.99568000       0.01711500 </v>
    <v>       0.83361900       0.50432000       0.51711500 </v>
    <v>       0.83361900       0.49568000       0.01711500 </v>
    <v>       0.30926400       0.26740800       0.92544800 </v>
    <v>       0.30926400       0.73259200       0.42544800 </v>
    <v>       0.80926400       0.76740800       0.92544800 </v>
    <v>       0.80926400       0.23259200       0.42544800 </v>
    <v>       0.00386100       0.36884200       0.24394900 </v>
    <v>       0.00386100       0.63115800       0.74394900 </v>
    <v>       0.50386100       0.86884200       0.24394900 </v>
    <v>       0.50386100       0.13115800       0.74394900 </v>
    <v>       0.02591400       0.39537700       0.57915900 </v>
    <v>       0.02591400       0.60462300       0.07915900 </v>
    <v>       0.52591400       0.89537700       0.57915900 </v>
    <v>       0.52591400       0.10462300       0.07915900 </v>
    <v>       0.17611800       0.21417000       0.08350500 </v>
    <v>       0.17611800       0.78583000       0.58350500 </v>
    <v>       0.67611800       0.71417000       0.08350500 </v>
    <v>       0.67611800       0.28583000       0.58350500 </v>
    <v>       0.18147400       0.20344500       0.73945400 </v>
    <v>       0.18147400       0.79655500       0.23945400 </v>
    <v>       0.68147400       0.70344500       0.73945400 </v>
    <v>       0.68147400       0.29655500       0.23945400 </v>
    <v>       0.18900300       0.20186000       0.42366300 </v>
    <v>       0.18900300       0.79814000       0.92366300 </v>
    <v>       0.68900300       0.70186000       0.42366300 </v>
    <v>       0.68900300       0.29814000       0.92366300 </v>
    <v>       0.29347700       0.34686800       0.57827500 </v>
    <v>       0.29347700       0.65313200       0.07827500 </v>
    <v>       0.79347700       0.84686800       0.57827500 </v>
    <v>       0.79347700       0.15313200       0.07827500 </v>
    <v>       0.30310600       0.30561100       0.24801900 </v>
    <v>       0.30310600       0.69438900       0.74801900 </v>
    <v>       0.80310600       0.80561100       0.24801900 </v>
    <v>       0.80310600       0.19438900       0.74801900 </v>
    <v>       0.49071400       0.13464800       0.42295500 </v>
    <v>       0.49071400       0.86535200       0.92295500 </v>
    <v>       0.99071400       0.63464800       0.42295500 </v>
    <v>       0.99071400       0.36535200       0.92295500 </v>
   </varray>
  </structure>
  <varray name="forces" >
   <v>       0.03321802       0.17476156      -0.46167771 </v>
   <v>       0.02547050      -0.16713666      -0.43982213 </v>
   <v>       0.02709625       0.17287647      -0.40625941 </v>
   <v>       0.03532953      -0.15502208      -0.41088407 </v>
   <v>       0.60908892      -0.70237152       1.20531007 </v>
   <v>       0.62561347       0.66827929       1.20746903 </v>
   <v>       0.64006162      -0.66689463       1.18996237 </v>
   <v>       0.65400206       0.66888082       1.20247268 </v>
   <v>      -0.24368428       1.02694696       0.11918158 </v>
   <v>      -0.23702522      -1.01160001       0.09228559 </v>
   <v>      -0.25103501       1.01482556       0.10595384 </v>
   <v>      -0.23925225      -1.01219564       0.09758152 </v>
   <v>       0.06365461      -1.14047643      -1.40203446 </v>
   <v>       0.02852593       1.13035488      -1.37454585 </v>
   <v>       0.04423491      -1.11549365      -1.37159250 </v>
   <v>       0.02918365       1.10742355      -1.37663973 </v>
   <v>      -0.42096439      -1.85692142       0.23264909 </v>
   <v>      -0.44510321       1.84143883       0.23860067 </v>
   <v>      -0.43929193      -1.84239513       0.23644450 </v>
   <v>      -0.45245705       1.84025165       0.24039924 </v>
   <v>      -0.35424926       0.21761392       0.38083474 </v>
   <v>      -0.34588425      -0.22102517       0.37828501 </v>
   <v>      -0.34469507       0.22189511       0.36568847 </v>
   <v>      -0.33643591      -0.22614615       0.36920552 </v>
   <v>      -0.52068431       0.22965591      -0.32539350 </v>
   <v>      -0.51133922      -0.22078905      -0.32266744 </v>
   <v>      -0.53423079       0.21630717      -0.33780751 </v>
   <v>      -0.51343993      -0.22558986      -0.32493766 </v>
   <v>       0.30907195      -0.22797994      -0.43806204 </v>
   <v>       0.31476021       0.22977011      -0.45928877 </v>
   <v>       0.30721487      -0.20433613      -0.45335488 </v>
   <v>       0.31434502       0.21829657      -0.44922352 </v>
   <v>       0.64139052       0.07818902       0.59559851 </v>
   <v>       0.63993160      -0.06276452       0.59512785 </v>
   <v>       0.64177759       0.07807529       0.59090312 </v>
   <v>       0.64142602      -0.07102922       0.59008876 </v>
   <v>       0.47992097      -0.21501766       0.10173529 </v>
   <v>       0.48627700       0.19640668       0.09398820 </v>
   <v>       0.48260042      -0.20273108       0.09861216 </v>
   <v>       0.47470545       0.19878383       0.09723962 </v>
   <v>       0.07951490       0.00683580      -0.47810838 </v>
   <v>       0.08547989       0.00495171      -0.46998920 </v>
   <v>       0.07447225       0.01707459      -0.47821684 </v>
   <v>       0.07813985      -0.01640059      -0.47867452 </v>
   <v>      -0.23081388      -0.28648738       0.27621000 </v>
   <v>      -0.23485584       0.28901863       0.28381092 </v>
   <v>      -0.23236505      -0.28858550       0.27108761 </v>
   <v>      -0.23979891       0.28351670       0.27310720 </v>
   <v>      -0.44259977      -0.43571747       0.17637015 </v>
   <v>      -0.42161124       0.44268006       0.18643346 </v>
   <v>      -0.43752765      -0.44479761       0.17684336 </v>
   <v>      -0.43716357       0.44479385       0.18970001 </v>
  </varray>
  <varray name="stress" >
   <v>    -204.90984795       0.69370255      -0.24280415 </v>
   <v>       0.69370134    -218.14336098      -0.19677755 </v>
   <v>      -0.24280429      -0.19677580    -234.81037527 </v>
  </varray>
  <energy>
   <i name="e_fr_energy">   -277.48373450 </i>
   <i name="e_wo_entrp">   -277.50115289 </i>
   <i name="e_0_energy">      0.05225515 </i>
  </energy>
  <time name="totalsc"> 1978.27 3544.66</time>
  <eigenvalues>
   <array>
    <dimension dim="1">band</dimension>
    <dimension dim="2">kpoint</dimension>
    <dimension dim="3">spin</dimension>
    <field>eigene</field>
    <field>occ</field>
    <set>
     <set comment="spin 1">
      <set comment="kpoint 1">
       <r>  -23.8812    1.0000 </r>
       <r>  -23.8596    1.0000 </r>
       <r>  -23.7749    1.0000 </r>
       <r>  -23.7596    1.0000 </r>
       <r>  -23.6867    1.0000 </r>
       <r>  -23.6710    1.0000 </r>
       <r>  -23.6335    1.0000 </r>
       <r>  -23.6079    1.0000 </r>
       <r>  -23.5697    1.0000 </r>
       <r>  -23.5523    1.0000 </r>
       <r>  -23.5465    1.0000 </r>
       <r>  -23.5383    1.0000 </r>
       <r>  -23.3249    1.0000 </r>
       <r>  -23.3100    1.0000 </r>
       <r>  -23.3069    1.0000 </r>
       <r>  -23.3037    1.0000 </r>
       <r>  -23.1738    1.0000 </r>
       <r>  -23.1607    1.0000 </r>
       <r>  -23.1458    1.0000 </r>
       <r>  -23.1398    1.0000 </r>
       <r>  -23.1072    1.0000 </r>
       <r>  -23.0942    1.0000 </r>
       <r>  -23.0478    1.0000 </r>
       <r>  -23.0427    1.0000 </r>
       <r>  -22.9998    1.0000 </r>
       <r>  -22.9949    1.0000 </r>
       <r>  -22.9416    1.0000 </r>
       <r>  -22.9373    1.0000 </r>
       <r>  -22.7776    1.0000 </r>
       <r>  -22.7760    1.0000 </r>
       <r>  -22.7572    1.0000 </r>
       <r>  -22.7570    1.0000 </r>
       <r>  -18.7126    1.0000 </r>
       <r>  -18.7049    1.0000 </r>
       <r>  -18.7029    1.0000 </r>
       <r>  -18.6965    1.0000 </r>
       <r>   -6.9850    1.0000 </r>
       <r>   -6.9811    1.0000 </r>
       <r>   -6.8896    1.0000 </r>
       <r>   -6.8061    1.0000 </r>
       <r>   -6.7984    1.0000 </r>
       <r>   -6.7635    1.0000 </r>
       <r>   -6.7427    1.0000 </r>
       <r>   -6.7310    1.0000 </r>
       <r>   -6.4835    1.0000 </r>
       <r>   -6.4299    1.0000 </r>
       <r>   -6.3450    1.0000 </r>
       <r>   -6.2397    1.0000 </r>
       <r>   -6.2053    1.0000 </r>
       <r>   -6.1829    1.0000 </r>
       <r>   -6.1471    1.0000 </r>
       <r>   -6.1443    1.0000 </r>
       <r>   -6.1127    1.0000 </r>
       <r>   -6.1007    1.0000 </r>
       <r>   -6.0914    1.0000 </r>
       <r>   -6.0766    1.0000 </r>
       <r>   -6.0434    1.0000 </r>
       <r>   -5.9891    1.0000 </r>
       <r>   -5.9703    1.0000 </r>
       <r>   -5.9361    1.0000 </r>
       <r>   -5.9344    1.0000 </r>
       <r>   -5.9281    1.0000 </r>
       <r>   -5.9223    1.0000 </r>
       <r>   -5.8791    1.0000 </r>
       <r>   -5.8316    1.0000 </r>
       <r>   -5.8260    1.0000 </r>
       <r>   -5.8128    1.0000 </r>
       <r>   -5.7519    1.0000 </r>
       <r>   -5.7398    1.0000 </r>
       <r>   -5.7056    1.0000 </r>
       <r>   -5.6866    1.0000 </r>
       <r>   -5.6605    1.0000 </r>
       <r>   -5.6440    1.0000 </r>
       <r>   -5.6399    1.0000 </r>
       <r>   -5.6172    1.0000 </r>
       <r>   -5.5895    1.0000 </r>
       <r>   -5.5696    1.0000 </r>
       <r>   -5.5506    1.0000 </r>
       <r>   -5.5190    1.0000 </r>
       <r>   -5.4842    1.0000 </r>
       <r>   -5.4401    1.0000 </r>
       <r>   -5.4309    1.0000 </r>
       <r>   -5.2905    1.0000 </r>
       <r>   -5.2609    1.0000 </r>
       <r>   -5.1873    1.0000 </r>
       <r>   -5.1733    1.0000 </r>
       <r>   -5.1288    1.0000 </r>
       <r>   -5.0710    1.0000 </r>
       <r>   -5.0661    1.0000 </r>
       <r>   -5.0224    1.0000 </r>
       <r>   -4.9957    1.0000 </r>
       <r>   -4.9880    1.0000 </r>
       <r>   -4.9040    1.0000 </r>
       <r>   -4.8544    1.0000 </r>
       <r>   -4.8081    1.0000 </r>
       <r>   -4.7927    1.0000 </r>
       <r>   -4.7537    1.0000 </r>
       <r>   -4.6633    1.0000 </r>
       <r>   -4.6630    1.0000 </r>
       <r>   -4.6560    1.0000 </r>
       <r>   -4.6087    1.0000 </r>
       <r>   -4.5680    1.0000 </r>
       <r>   -4.5649    1.0000 </r>
       <r>   -4.5486    1.0000 </r>
       <r>   -4.5440    1.0000 </r>
       <r>   -4.5151    1.0000 </r>
       <r>   -4.5026    1.0000 </r>
       <r>   -4.4514    1.0000 </r>
       <r>   -4.4116    1.0000 </r>
       <r>   -4.4007    1.0000 </r>
       <r>   -4.3839    1.0000 </r>
       <r>   -4.3627    1.0000 </r>
       <r>   -4.3425    1.0000 </r>
       <r>   -4.3025    1.0000 </r>
       <r>   -4.2296    1.0000 </r>
       <r>   -4.1972    1.0000 </r>
       <r>   -4.1830    1.0000 </r>
       <r>   -4.1245    1.0000 </r>
       <r>   -4.1063    1.0000 </r>
       <r>   -4.0896    1.0000 </r>
       <r>   -4.0570    1.0000 </r>
       <r>   -4.0552    1.0000 </r>
       <r>   -4.0458    1.0000 </r>
       <r>   -3.9963    1.0000 </r>
       <r>   -3.9709    1.0000 </r>
       <r>   -3.9588    1.0000 </r>
       <r>   -3.8894    1.0000 </r>
       <r>   -3.8803    1.0000 </r>
       <r>   -3.8532    1.0000 </r>
       <r>   -3.8215    1.0000 </r>
       <r>   -3.8121    1.0000 </r>
       <r>   -3.8109    1.0000 </r>
       <r>   -3.7731    1.0000 </r>
       <r>   -3.7462    1.0000 </r>
       <r>   -3.7117    1.0000 </r>
       <r>   -3.6597    1.0000 </r>
       <r>   -3.6480    1.0000 </r>
       <r>   -3.5763    1.0000 </r>
       <r>   -3.5237    1.0000 </r>
       <r>   -3.5143    1.0000 </r>
       <r>   -3.5024    1.0000 </r>
       <r>   -3.4603    1.0000 </r>
       <r>   -3.4342    1.0000 </r>
       <r>   -3.4131    1.0000 </r>
       <r>   -0.8288    1.0000 </r>
       <r>   -0.8241    1.0000 </r>
       <r>   -0.7997    1.0000 </r>
       <r>   -0.7688    1.0000 </r>
       <r>   -0.7599    1.0001 </r>
       <r>   -0.7408    1.0001 </r>
       <r>   -0.6919    1.0003 </r>
       <r>   -0.6786    1.0005 </r>
       <r>   -0.6547    1.0008 </r>
       <r>   -0.6447    1.0010 </r>
       <r>   -0.6272    1.0015 </r>
       <r>   -0.6195    1.0018 </r>
       <r>   -0.6132    1.0020 </r>
       <r>   -0.6115    1.0021 </r>
       <r>   -0.5819    1.0037 </r>
       <r>   -0.5764    1.0041 </r>
       <r>   -0.5326    1.0088 </r>
       <r>   -0.5011    1.0140 </r>
       <r>   -0.4919    1.0158 </r>
       <r>   -0.4767    1.0190 </r>
       <r>   -0.4666    1.0213 </r>
       <r>   -0.4540    1.0242 </r>
       <r>   -0.4505    1.0250 </r>
       <r>   -0.4310    1.0293 </r>
       <r>   -0.4248    1.0306 </r>
       <r>   -0.4152    1.0324 </r>
       <r>   -0.4015    1.0344 </r>
       <r>   -0.3991    1.0346 </r>
       <r>   -0.3931    1.0351 </r>
       <r>   -0.3878    1.0354 </r>
       <r>   -0.3779    1.0353 </r>
       <r>   -0.3693    1.0346 </r>
       <r>   -0.3251    1.0166 </r>
       <r>   -0.3105    1.0036 </r>
       <r>   -0.2922    0.9813 </r>
       <r>   -0.2712    0.9462 </r>
       <r>   -0.2536    0.9082 </r>
       <r>   -0.2310    0.8482 </r>
       <r>   -0.2107    0.7841 </r>
       <r>   -0.2084    0.7762 </r>
       <r>   -0.2071    0.7715 </r>
       <r>   -0.1987    0.7417 </r>
       <r>   -0.1667    0.6173 </r>
       <r>   -0.1484    0.5411 </r>
       <r>   -0.1186    0.4153 </r>
       <r>   -0.1013    0.3447 </r>
       <r>   -0.0822    0.2712 </r>
       <r>   -0.0365    0.1239 </r>
       <r>   -0.0290    0.1044 </r>
       <r>    0.0128    0.0216 </r>
       <r>    0.0383   -0.0087 </r>
       <r>    0.0439   -0.0136 </r>
       <r>    0.0914   -0.0345 </r>
       <r>    0.1180   -0.0350 </r>
       <r>    0.1511   -0.0299 </r>
       <r>    0.1581   -0.0284 </r>
       <r>    0.2089   -0.0169 </r>
       <r>    0.2191   -0.0149 </r>
       <r>    0.2332   -0.0123 </r>
       <r>    0.2963   -0.0044 </r>
       <r>    0.3778   -0.0008 </r>
       <r>    0.4276   -0.0002 </r>
       <r>    0.4803   -0.0001 </r>
       <r>    0.5224   -0.0000 </r>
       <r>    0.5374   -0.0000 </r>
       <r>    0.6862   -0.0000 </r>
       <r>    0.7008   -0.0000 </r>
       <r>    0.7341   -0.0000 </r>
       <r>    0.7585   -0.0000 </r>
       <r>    0.7780   -0.0000 </r>
       <r>    0.8487   -0.0000 </r>
       <r>    0.9498   -0.0000 </r>
       <r>    0.9697   -0.0000 </r>
       <r>    0.9771   -0.0000 </r>
       <r>    1.0621   -0.0000 </r>
       <r>    1.0750   -0.0000 </r>
       <r>    1.0977   -0.0000 </r>
       <r>    1.1550   -0.0000 </r>
       <r>    1.2356   -0.0000 </r>
       <r>    1.2571   -0.0000 </r>
       <r>    3.3470   -0.0000 </r>
      </set>
      <set comment="kpoint 2">
       <r>  -23.8487    1.0000 </r>
       <r>  -23.8322    1.0000 </r>
       <r>  -23.8218    1.0000 </r>
       <r>  -23.8183    1.0000 </r>
       <r>  -23.6490    1.0000 </r>
       <r>  -23.6367    1.0000 </r>
       <r>  -23.6290    1.0000 </r>
       <r>  -23.6204    1.0000 </r>
       <r>  -23.5732    1.0000 </r>
       <r>  -23.5571    1.0000 </r>
       <r>  -23.5501    1.0000 </r>
       <r>  -23.5457    1.0000 </r>
       <r>  -23.3255    1.0000 </r>
       <r>  -23.3105    1.0000 </r>
       <r>  -23.3076    1.0000 </r>
       <r>  -23.3044    1.0000 </r>
       <r>  -23.1608    1.0000 </r>
       <r>  -23.1537    1.0000 </r>
       <r>  -23.1496    1.0000 </r>
       <r>  -23.1424    1.0000 </r>
       <r>  -23.0939    1.0000 </r>
       <r>  -23.0852    1.0000 </r>
       <r>  -23.0824    1.0000 </r>
       <r>  -23.0734    1.0000 </r>
       <r>  -22.9652    1.0000 </r>
       <r>  -22.9644    1.0000 </r>
       <r>  -22.9598    1.0000 </r>
       <r>  -22.9533    1.0000 </r>
       <r>  -22.7712    1.0000 </r>
       <r>  -22.7691    1.0000 </r>
       <r>  -22.7638    1.0000 </r>
       <r>  -22.7630    1.0000 </r>
       <r>  -18.7113    1.0000 </r>
       <r>  -18.7041    1.0000 </r>
       <r>  -18.7033    1.0000 </r>
       <r>  -18.6980    1.0000 </r>
       <r>   -6.9159    1.0000 </r>
       <r>   -6.9090    1.0000 </r>
       <r>   -6.9085    1.0000 </r>
       <r>   -6.9045    1.0000 </r>
       <r>   -6.8464    1.0000 </r>
       <r>   -6.8431    1.0000 </r>
       <r>   -6.7460    1.0000 </r>
       <r>   -6.7401    1.0000 </r>
       <r>   -6.3695    1.0000 </r>
       <r>   -6.3651    1.0000 </r>
       <r>   -6.2819    1.0000 </r>
       <r>   -6.2778    1.0000 </r>
       <r>   -6.2155    1.0000 </r>
       <r>   -6.2107    1.0000 </r>
       <r>   -6.1628    1.0000 </r>
       <r>   -6.1581    1.0000 </r>
       <r>   -6.1348    1.0000 </r>
       <r>   -6.1252    1.0000 </r>
       <r>   -6.1124    1.0000 </r>
       <r>   -6.1106    1.0000 </r>
       <r>   -6.0183    1.0000 </r>
       <r>   -6.0119    1.0000 </r>
       <r>   -6.0062    1.0000 </r>
       <r>   -6.0035    1.0000 </r>
       <r>   -5.8962    1.0000 </r>
       <r>   -5.8898    1.0000 </r>
       <r>   -5.8538    1.0000 </r>
       <r>   -5.8507    1.0000 </r>
       <r>   -5.8110    1.0000 </r>
       <r>   -5.8003    1.0000 </r>
       <r>   -5.7950    1.0000 </r>
       <r>   -5.7889    1.0000 </r>
       <r>   -5.7198    1.0000 </r>
       <r>   -5.7156    1.0000 </r>
       <r>   -5.7081    1.0000 </r>
       <r>   -5.7000    1.0000 </r>
       <r>   -5.6435    1.0000 </r>
       <r>   -5.6399    1.0000 </r>
       <r>   -5.6250    1.0000 </r>
       <r>   -5.6224    1.0000 </r>
       <r>   -5.5078    1.0000 </r>
       <r>   -5.5018    1.0000 </r>
       <r>   -5.4939    1.0000 </r>
       <r>   -5.4918    1.0000 </r>
       <r>   -5.3926    1.0000 </r>
       <r>   -5.3881    1.0000 </r>
       <r>   -5.3818    1.0000 </r>
       <r>   -5.3811    1.0000 </r>
       <r>   -5.1121    1.0000 </r>
       <r>   -5.1028    1.0000 </r>
       <r>   -5.0849    1.0000 </r>
       <r>   -5.0795    1.0000 </r>
       <r>   -5.0719    1.0000 </r>
       <r>   -5.0677    1.0000 </r>
       <r>   -4.9836    1.0000 </r>
       <r>   -4.9789    1.0000 </r>
       <r>   -4.9550    1.0000 </r>
       <r>   -4.9488    1.0000 </r>
       <r>   -4.8187    1.0000 </r>
       <r>   -4.8114    1.0000 </r>
       <r>   -4.7141    1.0000 </r>
       <r>   -4.7117    1.0000 </r>
       <r>   -4.6582    1.0000 </r>
       <r>   -4.6511    1.0000 </r>
       <r>   -4.5972    1.0000 </r>
       <r>   -4.5906    1.0000 </r>
       <r>   -4.5780    1.0000 </r>
       <r>   -4.5742    1.0000 </r>
       <r>   -4.4900    1.0000 </r>
       <r>   -4.4875    1.0000 </r>
       <r>   -4.4364    1.0000 </r>
       <r>   -4.4318    1.0000 </r>
       <r>   -4.4120    1.0000 </r>
       <r>   -4.4100    1.0000 </r>
       <r>   -4.3914    1.0000 </r>
       <r>   -4.3888    1.0000 </r>
       <r>   -4.3396    1.0000 </r>
       <r>   -4.3375    1.0000 </r>
       <r>   -4.1484    1.0000 </r>
       <r>   -4.1467    1.0000 </r>
       <r>   -4.1001    1.0000 </r>
       <r>   -4.0935    1.0000 </r>
       <r>   -4.0862    1.0000 </r>
       <r>   -4.0838    1.0000 </r>
       <r>   -4.0455    1.0000 </r>
       <r>   -4.0409    1.0000 </r>
       <r>   -4.0368    1.0000 </r>
       <r>   -4.0337    1.0000 </r>
       <r>   -3.9490    1.0000 </r>
       <r>   -3.9420    1.0000 </r>
       <r>   -3.9215    1.0000 </r>
       <r>   -3.9166    1.0000 </r>
       <r>   -3.8446    1.0000 </r>
       <r>   -3.8379    1.0000 </r>
       <r>   -3.8315    1.0000 </r>
       <r>   -3.8273    1.0000 </r>
       <r>   -3.7642    1.0000 </r>
       <r>   -3.7591    1.0000 </r>
       <r>   -3.7259    1.0000 </r>
       <r>   -3.7228    1.0000 </r>
       <r>   -3.5890    1.0000 </r>
       <r>   -3.5858    1.0000 </r>
       <r>   -3.5666    1.0000 </r>
       <r>   -3.5617    1.0000 </r>
       <r>   -3.4924    1.0000 </r>
       <r>   -3.4877    1.0000 </r>
       <r>   -3.4453    1.0000 </r>
       <r>   -3.4367    1.0000 </r>
       <r>   -0.8204    1.0000 </r>
       <r>   -0.8165    1.0000 </r>
       <r>   -0.7936    1.0000 </r>
       <r>   -0.7906    1.0000 </r>
       <r>   -0.7405    1.0001 </r>
       <r>   -0.7378    1.0001 </r>
       <r>   -0.6914    1.0003 </r>
       <r>   -0.6878    1.0004 </r>
       <r>   -0.6580    1.0007 </r>
       <r>   -0.6536    1.0008 </r>
       <r>   -0.6330    1.0013 </r>
       <r>   -0.6297    1.0014 </r>
       <r>   -0.6081    1.0022 </r>
       <r>   -0.6060    1.0023 </r>
       <r>   -0.5629    1.0053 </r>
       <r>   -0.5545    1.0061 </r>
       <r>   -0.5260    1.0098 </r>
       <r>   -0.5228    1.0102 </r>
       <r>   -0.4939    1.0154 </r>
       <r>   -0.4882    1.0165 </r>
       <r>   -0.4713    1.0202 </r>
       <r>   -0.4618    1.0223 </r>
       <r>   -0.4560    1.0237 </r>
       <r>   -0.4552    1.0239 </r>
       <r>   -0.4437    1.0265 </r>
       <r>   -0.4326    1.0290 </r>
       <r>   -0.4188    1.0318 </r>
       <r>   -0.4135    1.0327 </r>
       <r>   -0.3873    1.0354 </r>
       <r>   -0.3818    1.0354 </r>
       <r>   -0.3718    1.0349 </r>
       <r>   -0.3675    1.0343 </r>
       <r>   -0.2748    0.9529 </r>
       <r>   -0.2711    0.9459 </r>
       <r>   -0.2511    0.9021 </r>
       <r>   -0.2491    0.8973 </r>
       <r>   -0.2448    0.8863 </r>
       <r>   -0.2425    0.8803 </r>
       <r>   -0.2146    0.7970 </r>
       <r>   -0.2122    0.7889 </r>
       <r>   -0.1798    0.6699 </r>
       <r>   -0.1781    0.6631 </r>
       <r>   -0.1745    0.6490 </r>
       <r>   -0.1720    0.6389 </r>
       <r>   -0.1096    0.3784 </r>
       <r>   -0.1050    0.3597 </r>
       <r>   -0.0916    0.3067 </r>
       <r>   -0.0896    0.2990 </r>
       <r>   -0.0261    0.0972 </r>
       <r>   -0.0181    0.0788 </r>
       <r>    0.0333   -0.0038 </r>
       <r>    0.0387   -0.0091 </r>
       <r>    0.1283   -0.0339 </r>
       <r>    0.1344   -0.0330 </r>
       <r>    0.1409   -0.0319 </r>
       <r>    0.1519   -0.0297 </r>
       <r>    0.1832   -0.0226 </r>
       <r>    0.1962   -0.0197 </r>
       <r>    0.2612   -0.0080 </r>
       <r>    0.2714   -0.0068 </r>
       <r>    0.4235   -0.0003 </r>
       <r>    0.4308   -0.0002 </r>
       <r>    0.4624   -0.0001 </r>
       <r>    0.4825   -0.0001 </r>
       <r>    0.5952   -0.0000 </r>
       <r>    0.6099   -0.0000 </r>
       <r>    0.7278   -0.0000 </r>
       <r>    0.7339   -0.0000 </r>
       <r>    0.7575   -0.0000 </r>
       <r>    0.7655   -0.0000 </r>
       <r>    0.8706   -0.0000 </r>
       <r>    0.8834   -0.0000 </r>
       <r>    1.0430   -0.0000 </r>
       <r>    1.0446   -0.0000 </r>
       <r>    1.0593   -0.0000 </r>
       <r>    1.0619   -0.0000 </r>
       <r>    1.1070   -0.0000 </r>
       <r>    1.1118   -0.0000 </r>
       <r>    1.2257   -0.0000 </r>
       <r>    1.2328   -0.0000 </r>
       <r>    4.0078   -0.0000 </r>
      </set>
      <set comment="kpoint 3">
       <r>  -23.8058    1.0000 </r>
       <r>  -23.7883    1.0000 </r>
       <r>  -23.7814    1.0000 </r>
       <r>  -23.7767    1.0000 </r>
       <r>  -23.6556    1.0000 </r>
       <r>  -23.6488    1.0000 </r>
       <r>  -23.6382    1.0000 </r>
       <r>  -23.6326    1.0000 </r>
       <r>  -23.5730    1.0000 </r>
       <r>  -23.5638    1.0000 </r>
       <r>  -23.5573    1.0000 </r>
       <r>  -23.5500    1.0000 </r>
       <r>  -23.3518    1.0000 </r>
       <r>  -23.3358    1.0000 </r>
       <r>  -23.3350    1.0000 </r>
       <r>  -23.3311    1.0000 </r>
       <r>  -23.1577    1.0000 </r>
       <r>  -23.1508    1.0000 </r>
       <r>  -23.1461    1.0000 </r>
       <r>  -23.1385    1.0000 </r>
       <r>  -23.0641    1.0000 </r>
       <r>  -23.0601    1.0000 </r>
       <r>  -23.0545    1.0000 </r>
       <r>  -23.0492    1.0000 </r>
       <r>  -22.9788    1.0000 </r>
       <r>  -22.9776    1.0000 </r>
       <r>  -22.9723    1.0000 </r>
       <r>  -22.9655    1.0000 </r>
       <r>  -22.7897    1.0000 </r>
       <r>  -22.7872    1.0000 </r>
       <r>  -22.7827    1.0000 </r>
       <r>  -22.7820    1.0000 </r>
       <r>  -18.7198    1.0000 </r>
       <r>  -18.7126    1.0000 </r>
       <r>  -18.7118    1.0000 </r>
       <r>  -18.7065    1.0000 </r>
       <r>   -6.8122    1.0000 </r>
       <r>   -6.8041    1.0000 </r>
       <r>   -6.7789    1.0000 </r>
       <r>   -6.7739    1.0000 </r>
       <r>   -6.7648    1.0000 </r>
       <r>   -6.7583    1.0000 </r>
       <r>   -6.7197    1.0000 </r>
       <r>   -6.7184    1.0000 </r>
       <r>   -6.4901    1.0000 </r>
       <r>   -6.4860    1.0000 </r>
       <r>   -6.4176    1.0000 </r>
       <r>   -6.4130    1.0000 </r>
       <r>   -6.3847    1.0000 </r>
       <r>   -6.3810    1.0000 </r>
       <r>   -6.2830    1.0000 </r>
       <r>   -6.2740    1.0000 </r>
       <r>   -6.1326    1.0000 </r>
       <r>   -6.1279    1.0000 </r>
       <r>   -6.1070    1.0000 </r>
       <r>   -6.1045    1.0000 </r>
       <r>   -6.0490    1.0000 </r>
       <r>   -6.0474    1.0000 </r>
       <r>   -6.0034    1.0000 </r>
       <r>   -5.9967    1.0000 </r>
       <r>   -5.9723    1.0000 </r>
       <r>   -5.9711    1.0000 </r>
       <r>   -5.8334    1.0000 </r>
       <r>   -5.8297    1.0000 </r>
       <r>   -5.8070    1.0000 </r>
       <r>   -5.8020    1.0000 </r>
       <r>   -5.7985    1.0000 </r>
       <r>   -5.7951    1.0000 </r>
       <r>   -5.7034    1.0000 </r>
       <r>   -5.6985    1.0000 </r>
       <r>   -5.6823    1.0000 </r>
       <r>   -5.6792    1.0000 </r>
       <r>   -5.6497    1.0000 </r>
       <r>   -5.6452    1.0000 </r>
       <r>   -5.5673    1.0000 </r>
       <r>   -5.5646    1.0000 </r>
       <r>   -5.4961    1.0000 </r>
       <r>   -5.4915    1.0000 </r>
       <r>   -5.4650    1.0000 </r>
       <r>   -5.4597    1.0000 </r>
       <r>   -5.3204    1.0000 </r>
       <r>   -5.3188    1.0000 </r>
       <r>   -5.2837    1.0000 </r>
       <r>   -5.2809    1.0000 </r>
       <r>   -5.0813    1.0000 </r>
       <r>   -5.0766    1.0000 </r>
       <r>   -5.0152    1.0000 </r>
       <r>   -5.0123    1.0000 </r>
       <r>   -4.9241    1.0000 </r>
       <r>   -4.9188    1.0000 </r>
       <r>   -4.9068    1.0000 </r>
       <r>   -4.8969    1.0000 </r>
       <r>   -4.8743    1.0000 </r>
       <r>   -4.8709    1.0000 </r>
       <r>   -4.8363    1.0000 </r>
       <r>   -4.8334    1.0000 </r>
       <r>   -4.6911    1.0000 </r>
       <r>   -4.6874    1.0000 </r>
       <r>   -4.6717    1.0000 </r>
       <r>   -4.6701    1.0000 </r>
       <r>   -4.5942    1.0000 </r>
       <r>   -4.5883    1.0000 </r>
       <r>   -4.5581    1.0000 </r>
       <r>   -4.5545    1.0000 </r>
       <r>   -4.5286    1.0000 </r>
       <r>   -4.5225    1.0000 </r>
       <r>   -4.4622    1.0000 </r>
       <r>   -4.4593    1.0000 </r>
       <r>   -4.4165    1.0000 </r>
       <r>   -4.4144    1.0000 </r>
       <r>   -4.3577    1.0000 </r>
       <r>   -4.3525    1.0000 </r>
       <r>   -4.3145    1.0000 </r>
       <r>   -4.3108    1.0000 </r>
       <r>   -4.2713    1.0000 </r>
       <r>   -4.2690    1.0000 </r>
       <r>   -4.1933    1.0000 </r>
       <r>   -4.1910    1.0000 </r>
       <r>   -4.1021    1.0000 </r>
       <r>   -4.0992    1.0000 </r>
       <r>   -4.0725    1.0000 </r>
       <r>   -4.0706    1.0000 </r>
       <r>   -4.0392    1.0000 </r>
       <r>   -4.0355    1.0000 </r>
       <r>   -4.0226    1.0000 </r>
       <r>   -4.0191    1.0000 </r>
       <r>   -3.9885    1.0000 </r>
       <r>   -3.9867    1.0000 </r>
       <r>   -3.8187    1.0000 </r>
       <r>   -3.8185    1.0000 </r>
       <r>   -3.7857    1.0000 </r>
       <r>   -3.7831    1.0000 </r>
       <r>   -3.7318    1.0000 </r>
       <r>   -3.7307    1.0000 </r>
       <r>   -3.6720    1.0000 </r>
       <r>   -3.6669    1.0000 </r>
       <r>   -3.6077    1.0000 </r>
       <r>   -3.6071    1.0000 </r>
       <r>   -3.5905    1.0000 </r>
       <r>   -3.5885    1.0000 </r>
       <r>   -3.5775    1.0000 </r>
       <r>   -3.5743    1.0000 </r>
       <r>   -3.4688    1.0000 </r>
       <r>   -3.4667    1.0000 </r>
       <r>   -0.9153    1.0000 </r>
       <r>   -0.9114    1.0000 </r>
       <r>   -0.8948    1.0000 </r>
       <r>   -0.8941    1.0000 </r>
       <r>   -0.7112    1.0002 </r>
       <r>   -0.7033    1.0002 </r>
       <r>   -0.6790    1.0004 </r>
       <r>   -0.6758    1.0005 </r>
       <r>   -0.6242    1.0016 </r>
       <r>   -0.6215    1.0017 </r>
       <r>   -0.5937    1.0030 </r>
       <r>   -0.5923    1.0031 </r>
       <r>   -0.5696    1.0047 </r>
       <r>   -0.5673    1.0049 </r>
       <r>   -0.5596    1.0056 </r>
       <r>   -0.5506    1.0066 </r>
       <r>   -0.5425    1.0075 </r>
       <r>   -0.5397    1.0079 </r>
       <r>   -0.5085    1.0126 </r>
       <r>   -0.4981    1.0146 </r>
       <r>   -0.4675    1.0210 </r>
       <r>   -0.4646    1.0217 </r>
       <r>   -0.4512    1.0248 </r>
       <r>   -0.4430    1.0267 </r>
       <r>   -0.4095    1.0333 </r>
       <r>   -0.4061    1.0338 </r>
       <r>   -0.3997    1.0346 </r>
       <r>   -0.3971    1.0348 </r>
       <r>   -0.3813    1.0354 </r>
       <r>   -0.3788    1.0354 </r>
       <r>   -0.3619    1.0334 </r>
       <r>   -0.3544    1.0315 </r>
       <r>   -0.3348    1.0230 </r>
       <r>   -0.3293    1.0195 </r>
       <r>   -0.3043    0.9968 </r>
       <r>   -0.2993    0.9908 </r>
       <r>   -0.2651    0.9338 </r>
       <r>   -0.2641    0.9317 </r>
       <r>   -0.2444    0.8852 </r>
       <r>   -0.2423    0.8797 </r>
       <r>   -0.2158    0.8008 </r>
       <r>   -0.2142    0.7957 </r>
       <r>   -0.1943    0.7254 </r>
       <r>   -0.1931    0.7210 </r>
       <r>   -0.1324    0.4734 </r>
       <r>   -0.1308    0.4668 </r>
       <r>   -0.0526    0.1705 </r>
       <r>   -0.0461    0.1509 </r>
       <r>   -0.0192    0.0811 </r>
       <r>   -0.0187    0.0799 </r>
       <r>    0.0658   -0.0273 </r>
       <r>    0.0671   -0.0279 </r>
       <r>    0.1153   -0.0352 </r>
       <r>    0.1227   -0.0345 </r>
       <r>    0.2260   -0.0135 </r>
       <r>    0.2375   -0.0115 </r>
       <r>    0.2960   -0.0044 </r>
       <r>    0.3073   -0.0035 </r>
       <r>    0.3548   -0.0013 </r>
       <r>    0.3590   -0.0012 </r>
       <r>    0.4289   -0.0002 </r>
       <r>    0.4499   -0.0001 </r>
       <r>    0.4662   -0.0001 </r>
       <r>    0.4804   -0.0001 </r>
       <r>    0.5332   -0.0000 </r>
       <r>    0.5356   -0.0000 </r>
       <r>    0.6754   -0.0000 </r>
       <r>    0.6838   -0.0000 </r>
       <r>    0.7483   -0.0000 </r>
       <r>    0.7524   -0.0000 </r>
       <r>    0.8427   -0.0000 </r>
       <r>    0.8453   -0.0000 </r>
       <r>    0.8771   -0.0000 </r>
       <r>    0.8849   -0.0000 </r>
       <r>    0.9768   -0.0000 </r>
       <r>    0.9785   -0.0000 </r>
       <r>    1.0323   -0.0000 </r>
       <r>    1.0343   -0.0000 </r>
       <r>    1.1539   -0.0000 </r>
       <r>    1.1580   -0.0000 </r>
       <r>    5.1555   -0.0000 </r>
      </set>
      <set comment="kpoint 4">
       <r>  -23.8190    1.0000 </r>
       <r>  -23.8037    1.0000 </r>
       <r>  -23.7544    1.0000 </r>
       <r>  -23.7420    1.0000 </r>
       <r>  -23.6923    1.0000 </r>
       <r>  -23.6769    1.0000 </r>
       <r>  -23.6291    1.0000 </r>
       <r>  -23.6113    1.0000 </r>
       <r>  -23.5707    1.0000 </r>
       <r>  -23.5631    1.0000 </r>
       <r>  -23.5567    1.0000 </r>
       <r>  -23.5495    1.0000 </r>
       <r>  -23.3533    1.0000 </r>
       <r>  -23.3385    1.0000 </r>
       <r>  -23.3341    1.0000 </r>
       <r>  -23.3284    1.0000 </r>
       <r>  -23.1603    1.0000 </r>
       <r>  -23.1494    1.0000 </r>
       <r>  -23.1470    1.0000 </r>
       <r>  -23.1360    1.0000 </r>
       <r>  -23.0696    1.0000 </r>
       <r>  -23.0682    1.0000 </r>
       <r>  -23.0345    1.0000 </r>
       <r>  -23.0324    1.0000 </r>
       <r>  -23.0061    1.0000 </r>
       <r>  -23.0022    1.0000 </r>
       <r>  -22.9561    1.0000 </r>
       <r>  -22.9514    1.0000 </r>
       <r>  -22.7961    1.0000 </r>
       <r>  -22.7945    1.0000 </r>
       <r>  -22.7760    1.0000 </r>
       <r>  -22.7754    1.0000 </r>
       <r>  -18.7204    1.0000 </r>
       <r>  -18.7126    1.0000 </r>
       <r>  -18.7119    1.0000 </r>
       <r>  -18.7056    1.0000 </r>
       <r>   -6.8271    1.0000 </r>
       <r>   -6.8161    1.0000 </r>
       <r>   -6.7996    1.0000 </r>
       <r>   -6.7898    1.0000 </r>
       <r>   -6.7690    1.0000 </r>
       <r>   -6.7636    1.0000 </r>
       <r>   -6.7106    1.0000 </r>
       <r>   -6.7034    1.0000 </r>
       <r>   -6.5065    1.0000 </r>
       <r>   -6.4991    1.0000 </r>
       <r>   -6.4661    1.0000 </r>
       <r>   -6.4619    1.0000 </r>
       <r>   -6.3291    1.0000 </r>
       <r>   -6.3270    1.0000 </r>
       <r>   -6.2685    1.0000 </r>
       <r>   -6.2577    1.0000 </r>
       <r>   -6.1591    1.0000 </r>
       <r>   -6.1478    1.0000 </r>
       <r>   -6.0793    1.0000 </r>
       <r>   -6.0714    1.0000 </r>
       <r>   -6.0572    1.0000 </r>
       <r>   -6.0530    1.0000 </r>
       <r>   -6.0110    1.0000 </r>
       <r>   -6.0085    1.0000 </r>
       <r>   -5.9207    1.0000 </r>
       <r>   -5.9147    1.0000 </r>
       <r>   -5.8524    1.0000 </r>
       <r>   -5.8470    1.0000 </r>
       <r>   -5.8324    1.0000 </r>
       <r>   -5.8236    1.0000 </r>
       <r>   -5.7720    1.0000 </r>
       <r>   -5.7685    1.0000 </r>
       <r>   -5.7509    1.0000 </r>
       <r>   -5.7480    1.0000 </r>
       <r>   -5.6651    1.0000 </r>
       <r>   -5.6568    1.0000 </r>
       <r>   -5.6427    1.0000 </r>
       <r>   -5.6392    1.0000 </r>
       <r>   -5.5781    1.0000 </r>
       <r>   -5.5721    1.0000 </r>
       <r>   -5.4839    1.0000 </r>
       <r>   -5.4755    1.0000 </r>
       <r>   -5.4329    1.0000 </r>
       <r>   -5.4237    1.0000 </r>
       <r>   -5.2628    1.0000 </r>
       <r>   -5.2615    1.0000 </r>
       <r>   -5.1923    1.0000 </r>
       <r>   -5.1896    1.0000 </r>
       <r>   -5.1434    1.0000 </r>
       <r>   -5.1395    1.0000 </r>
       <r>   -5.0408    1.0000 </r>
       <r>   -5.0362    1.0000 </r>
       <r>   -4.9737    1.0000 </r>
       <r>   -4.9669    1.0000 </r>
       <r>   -4.9425    1.0000 </r>
       <r>   -4.9374    1.0000 </r>
       <r>   -4.8898    1.0000 </r>
       <r>   -4.8852    1.0000 </r>
       <r>   -4.7791    1.0000 </r>
       <r>   -4.7777    1.0000 </r>
       <r>   -4.7147    1.0000 </r>
       <r>   -4.7070    1.0000 </r>
       <r>   -4.6706    1.0000 </r>
       <r>   -4.6649    1.0000 </r>
       <r>   -4.5921    1.0000 </r>
       <r>   -4.5885    1.0000 </r>
       <r>   -4.5825    1.0000 </r>
       <r>   -4.5796    1.0000 </r>
       <r>   -4.5281    1.0000 </r>
       <r>   -4.5220    1.0000 </r>
       <r>   -4.4443    1.0000 </r>
       <r>   -4.4375    1.0000 </r>
       <r>   -4.4230    1.0000 </r>
       <r>   -4.4170    1.0000 </r>
[...]
       <r>  -23.5500    1.0000 </r>
       <r>  -23.3512    1.0000 </r>
       <r>  -23.3350    1.0000 </r>
       <r>  -23.3347    1.0000 </r>
       <r>  -23.3309    1.0000 </r>
       <r>  -23.1572    1.0000 </r>
       <r>  -23.1501    1.0000 </r>
       <r>  -23.1461    1.0000 </r>
       <r>  -23.1385    1.0000 </r>
       <r>  -23.0602    1.0000 </r>
       <r>  -23.0597    1.0000 </r>
       <r>  -23.0541    1.0000 </r>
       <r>  -23.0507    1.0000 </r>
       <r>  -22.9784    1.0000 </r>
       <r>  -22.9772    1.0000 </r>
       <r>  -22.9719    1.0000 </r>
       <r>  -22.9651    1.0000 </r>
       <r>  -22.7893    1.0000 </r>
       <r>  -22.7868    1.0000 </r>
       <r>  -22.7821    1.0000 </r>
       <r>  -22.7818    1.0000 </r>
       <r>  -18.7196    1.0000 </r>
       <r>  -18.7124    1.0000 </r>
       <r>  -18.7116    1.0000 </r>
       <r>  -18.7064    1.0000 </r>
       <r>   -6.8033    1.0000 </r>
       <r>   -6.7962    1.0000 </r>
       <r>   -6.7910    1.0000 </r>
       <r>   -6.7880    1.0000 </r>
       <r>   -6.7459    1.0000 </r>
       <r>   -6.7425    1.0000 </r>
       <r>   -6.7384    1.0000 </r>
       <r>   -6.7358    1.0000 </r>
       <r>   -6.4517    1.0000 </r>
       <r>   -6.4437    1.0000 </r>
       <r>   -6.4393    1.0000 </r>
       <r>   -6.4372    1.0000 </r>
       <r>   -6.3568    1.0000 </r>
       <r>   -6.3474    1.0000 </r>
       <r>   -6.3434    1.0000 </r>
       <r>   -6.3405    1.0000 </r>
       <r>   -6.1191    1.0000 </r>
       <r>   -6.1119    1.0000 </r>
       <r>   -6.1072    1.0000 </r>
       <r>   -6.1013    1.0000 </r>
       <r>   -6.0229    1.0000 </r>
       <r>   -6.0199    1.0000 </r>
       <r>   -6.0172    1.0000 </r>
       <r>   -6.0152    1.0000 </r>
       <r>   -5.9249    1.0000 </r>
       <r>   -5.9229    1.0000 </r>
       <r>   -5.9182    1.0000 </r>
       <r>   -5.9152    1.0000 </r>
       <r>   -5.7861    1.0000 </r>
       <r>   -5.7810    1.0000 </r>
       <r>   -5.7790    1.0000 </r>
       <r>   -5.7760    1.0000 </r>
       <r>   -5.7010    1.0000 </r>
       <r>   -5.6966    1.0000 </r>
       <r>   -5.6943    1.0000 </r>
       <r>   -5.6898    1.0000 </r>
       <r>   -5.6186    1.0000 </r>
       <r>   -5.6095    1.0000 </r>
       <r>   -5.6070    1.0000 </r>
       <r>   -5.6044    1.0000 </r>
       <r>   -5.4841    1.0000 </r>
       <r>   -5.4756    1.0000 </r>
       <r>   -5.4732    1.0000 </r>
       <r>   -5.4693    1.0000 </r>
       <r>   -5.3095    1.0000 </r>
       <r>   -5.3066    1.0000 </r>
       <r>   -5.2994    1.0000 </r>
       <r>   -5.2987    1.0000 </r>
       <r>   -5.0192    1.0000 </r>
       <r>   -5.0137    1.0000 </r>
       <r>   -5.0086    1.0000 </r>
       <r>   -5.0074    1.0000 </r>
       <r>   -4.9273    1.0000 </r>
       <r>   -4.9186    1.0000 </r>
       <r>   -4.9168    1.0000 </r>
       <r>   -4.9144    1.0000 </r>
       <r>   -4.8771    1.0000 </r>
       <r>   -4.8654    1.0000 </r>
       <r>   -4.8627    1.0000 </r>
       <r>   -4.8617    1.0000 </r>
       <r>   -4.7111    1.0000 </r>
       <r>   -4.7079    1.0000 </r>
       <r>   -4.7043    1.0000 </r>
       <r>   -4.7031    1.0000 </r>
       <r>   -4.5689    1.0000 </r>
       <r>   -4.5672    1.0000 </r>
       <r>   -4.5597    1.0000 </r>
       <r>   -4.5582    1.0000 </r>
       <r>   -4.5016    1.0000 </r>
       <r>   -4.4952    1.0000 </r>
       <r>   -4.4926    1.0000 </r>
       <r>   -4.4916    1.0000 </r>
       <r>   -4.3742    1.0000 </r>
       <r>   -4.3682    1.0000 </r>
       <r>   -4.3640    1.0000 </r>
       <r>   -4.3628    1.0000 </r>
       <r>   -4.3066    1.0000 </r>
       <r>   -4.3023    1.0000 </r>
       <r>   -4.2992    1.0000 </r>
       <r>   -4.2977    1.0000 </r>
       <r>   -4.1333    1.0000 </r>
       <r>   -4.1301    1.0000 </r>
       <r>   -4.1261    1.0000 </r>
       <r>   -4.1260    1.0000 </r>
       <r>   -4.0695    1.0000 </r>
       <r>   -4.0663    1.0000 </r>
       <r>   -4.0624    1.0000 </r>
       <r>   -4.0585    1.0000 </r>
       <r>   -4.0098    1.0000 </r>
       <r>   -4.0075    1.0000 </r>
       <r>   -4.0051    1.0000 </r>
       <r>   -4.0031    1.0000 </r>
       <r>   -3.7983    1.0000 </r>
       <r>   -3.7955    1.0000 </r>
       <r>   -3.7920    1.0000 </r>
       <r>   -3.7904    1.0000 </r>
       <r>   -3.7191    1.0000 </r>
       <r>   -3.7170    1.0000 </r>
       <r>   -3.7146    1.0000 </r>
       <r>   -3.7112    1.0000 </r>
       <r>   -3.5994    1.0000 </r>
       <r>   -3.5975    1.0000 </r>
       <r>   -3.5951    1.0000 </r>
       <r>   -3.5936    1.0000 </r>
       <r>   -3.5152    1.0000 </r>
       <r>   -3.5119    1.0000 </r>
       <r>   -3.5105    1.0000 </r>
       <r>   -3.5088    1.0000 </r>
       <r>   -0.9121    1.0000 </r>
       <r>   -0.9046    1.0000 </r>
       <r>   -0.9023    1.0000 </r>
       <r>   -0.8986    1.0000 </r>
       <r>   -0.7023    1.0002 </r>
       <r>   -0.6910    1.0003 </r>
       <r>   -0.6895    1.0003 </r>
       <r>   -0.6885    1.0004 </r>
       <r>   -0.6069    1.0023 </r>
       <r>   -0.6053    1.0024 </r>
       <r>   -0.6019    1.0025 </r>
       <r>   -0.5999    1.0026 </r>
       <r>   -0.5774    1.0041 </r>
       <r>   -0.5751    1.0042 </r>
       <r>   -0.5738    1.0044 </r>
       <r>   -0.5718    1.0045 </r>
       <r>   -0.5164    1.0113 </r>
       <r>   -0.5031    1.0136 </r>
       <r>   -0.5022    1.0138 </r>
       <r>   -0.4991    1.0144 </r>
       <r>   -0.4796    1.0184 </r>
       <r>   -0.4747    1.0194 </r>
       <r>   -0.4734    1.0197 </r>
       <r>   -0.4666    1.0212 </r>
       <r>   -0.4070    1.0337 </r>
       <r>   -0.4024    1.0343 </r>
       <r>   -0.4004    1.0345 </r>
       <r>   -0.3971    1.0348 </r>
       <r>   -0.3575    1.0323 </r>
       <r>   -0.3537    1.0313 </r>
       <r>   -0.3518    1.0307 </r>
       <r>   -0.3393    1.0254 </r>
       <r>   -0.3243    1.0160 </r>
       <r>   -0.3232    1.0151 </r>
       <r>   -0.3216    1.0138 </r>
       <r>   -0.3142    1.0073 </r>
       <r>   -0.2487    0.8963 </r>
       <r>   -0.2458    0.8889 </r>
       <r>   -0.2448    0.8863 </r>
       <r>   -0.2429    0.8816 </r>
       <r>   -0.2124    0.7898 </r>
       <r>   -0.2093    0.7792 </r>
       <r>   -0.2087    0.7772 </r>
       <r>   -0.2042    0.7613 </r>
       <r>   -0.1386    0.4996 </r>
       <r>   -0.1341    0.4807 </r>
       <r>   -0.1328    0.4752 </r>
       <r>   -0.1300    0.4631 </r>
       <r>    0.0478   -0.0166 </r>
       <r>    0.0512   -0.0191 </r>
       <r>    0.0522   -0.0197 </r>
       <r>    0.0545   -0.0213 </r>
       <r>    0.1775   -0.0239 </r>
       <r>    0.1854   -0.0221 </r>
       <r>    0.1883   -0.0215 </r>
       <r>    0.2187   -0.0149 </r>
       <r>    0.3079   -0.0035 </r>
       <r>    0.3187   -0.0028 </r>
       <r>    0.3219   -0.0027 </r>
       <r>    0.3287   -0.0023 </r>
       <r>    0.4230   -0.0003 </r>
       <r>    0.4451   -0.0001 </r>
       <r>    0.4485   -0.0001 </r>
       <r>    0.4569   -0.0001 </r>
       <r>    0.6113   -0.0000 </r>
       <r>    0.6143   -0.0000 </r>
       <r>    0.6183   -0.0000 </r>
       <r>    0.6190   -0.0000 </r>
       <r>    0.7688   -0.0000 </r>
       <r>    0.7726   -0.0000 </r>
       <r>    0.7774   -0.0000 </r>
       <r>    0.7792   -0.0000 </r>
       <r>    0.9445   -0.0000 </r>
       <r>    0.9511   -0.0000 </r>
       <r>    0.9535   -0.0000 </r>
       <r>    0.9575   -0.0000 </r>
       <r>    1.0960   -0.0000 </r>
       <r>    1.0993   -0.0000 </r>
       <r>    1.1008   -0.0000 </r>
       <r>    1.1021   -0.0000 </r>
       <r>    5.3357    0.0000 </r>
      </set>
      <set comment="kpoint 8">
       <r>  -23.8190    1.0000 </r>
       <r>  -23.8036    1.0000 </r>
       <r>  -23.7552    1.0000 </r>
       <r>  -23.7428    1.0000 </r>
       <r>  -23.6921    1.0000 </r>
       <r>  -23.6767    1.0000 </r>
       <r>  -23.6287    1.0000 </r>
       <r>  -23.6108    1.0000 </r>
       <r>  -23.5708    1.0000 </r>
       <r>  -23.5623    1.0000 </r>
       <r>  -23.5577    1.0000 </r>
       <r>  -23.5496    1.0000 </r>
       <r>  -23.3539    1.0000 </r>
       <r>  -23.3392    1.0000 </r>
       <r>  -23.3344    1.0000 </r>
       <r>  -23.3286    1.0000 </r>
       <r>  -23.1608    1.0000 </r>
       <r>  -23.1494    1.0000 </r>
       <r>  -23.1473    1.0000 </r>
       <r>  -23.1361    1.0000 </r>
       <r>  -23.0690    1.0000 </r>
       <r>  -23.0680    1.0000 </r>
       <r>  -23.0347    1.0000 </r>
       <r>  -23.0334    1.0000 </r>
       <r>  -23.0063    1.0000 </r>
       <r>  -23.0024    1.0000 </r>
       <r>  -22.9562    1.0000 </r>
       <r>  -22.9515    1.0000 </r>
       <r>  -22.7962    1.0000 </r>
       <r>  -22.7946    1.0000 </r>
       <r>  -22.7760    1.0000 </r>
       <r>  -22.7754    1.0000 </r>
       <r>  -18.7205    1.0000 </r>
       <r>  -18.7127    1.0000 </r>
       <r>  -18.7119    1.0000 </r>
       <r>  -18.7057    1.0000 </r>
       <r>   -6.8285    1.0000 </r>
       <r>   -6.8190    1.0000 </r>
       <r>   -6.7930    1.0000 </r>
       <r>   -6.7877    1.0000 </r>
       <r>   -6.7682    1.0000 </r>
       <r>   -6.7628    1.0000 </r>
       <r>   -6.7182    1.0000 </r>
       <r>   -6.7117    1.0000 </r>
       <r>   -6.5034    1.0000 </r>
       <r>   -6.4932    1.0000 </r>
       <r>   -6.4365    1.0000 </r>
       <r>   -6.4284    1.0000 </r>
       <r>   -6.3751    1.0000 </r>
       <r>   -6.3685    1.0000 </r>
       <r>   -6.2698    1.0000 </r>
       <r>   -6.2581    1.0000 </r>
       <r>   -6.1508    1.0000 </r>
       <r>   -6.1389    1.0000 </r>
       <r>   -6.0821    1.0000 </r>
       <r>   -6.0743    1.0000 </r>
       <r>   -6.0422    1.0000 </r>
       <r>   -6.0404    1.0000 </r>
       <r>   -6.0064    1.0000 </r>
       <r>   -6.0017    1.0000 </r>
       <r>   -5.9155    1.0000 </r>
       <r>   -5.9138    1.0000 </r>
       <r>   -5.8735    1.0000 </r>
       <r>   -5.8697    1.0000 </r>
       <r>   -5.8286    1.0000 </r>
       <r>   -5.8234    1.0000 </r>
       <r>   -5.7585    1.0000 </r>
       <r>   -5.7569    1.0000 </r>
       <r>   -5.7475    1.0000 </r>
       <r>   -5.7456    1.0000 </r>
       <r>   -5.6979    1.0000 </r>
       <r>   -5.6939    1.0000 </r>
       <r>   -5.6491    1.0000 </r>
       <r>   -5.6393    1.0000 </r>
       <r>   -5.5501    1.0000 </r>
       <r>   -5.5440    1.0000 </r>
       <r>   -5.4954    1.0000 </r>
       <r>   -5.4865    1.0000 </r>
       <r>   -5.4373    1.0000 </r>
       <r>   -5.4279    1.0000 </r>
       <r>   -5.2409    1.0000 </r>
       <r>   -5.2401    1.0000 </r>
       <r>   -5.2002    1.0000 </r>
       <r>   -5.1965    1.0000 </r>
       <r>   -5.1110    1.0000 </r>
       <r>   -5.1017    1.0000 </r>
       <r>   -5.0809    1.0000 </r>
       <r>   -5.0701    1.0000 </r>
       <r>   -4.9471    1.0000 </r>
       <r>   -4.9429    1.0000 </r>
       <r>   -4.9272    1.0000 </r>
       <r>   -4.9237    1.0000 </r>
       <r>   -4.8793    1.0000 </r>
       <r>   -4.8731    1.0000 </r>
       <r>   -4.8394    1.0000 </r>
       <r>   -4.8334    1.0000 </r>
       <r>   -4.7142    1.0000 </r>
       <r>   -4.7084    1.0000 </r>
       <r>   -4.6823    1.0000 </r>
       <r>   -4.6758    1.0000 </r>
       <r>   -4.6005    1.0000 </r>
       <r>   -4.5958    1.0000 </r>
       <r>   -4.5724    1.0000 </r>
       <r>   -4.5673    1.0000 </r>
       <r>   -4.5203    1.0000 </r>
       <r>   -4.5147    1.0000 </r>
       <r>   -4.4653    1.0000 </r>
       <r>   -4.4590    1.0000 </r>
       <r>   -4.4098    1.0000 </r>
       <r>   -4.4064    1.0000 </r>
       <r>   -4.3570    1.0000 </r>
       <r>   -4.3538    1.0000 </r>
       <r>   -4.2929    1.0000 </r>
       <r>   -4.2902    1.0000 </r>
       <r>   -4.2381    1.0000 </r>
       <r>   -4.2338    1.0000 </r>
       <r>   -4.1865    1.0000 </r>
       <r>   -4.1826    1.0000 </r>
       <r>   -4.1702    1.0000 </r>
       <r>   -4.1664    1.0000 </r>
       <r>   -4.1346    1.0000 </r>
       <r>   -4.1305    1.0000 </r>
       <r>   -4.0892    1.0000 </r>
       <r>   -4.0831    1.0000 </r>
       <r>   -3.9949    1.0000 </r>
       <r>   -3.9895    1.0000 </r>
       <r>   -3.9230    1.0000 </r>
       <r>   -3.9186    1.0000 </r>
       <r>   -3.8580    1.0000 </r>
       <r>   -3.8545    1.0000 </r>
       <r>   -3.7738    1.0000 </r>
       <r>   -3.7727    1.0000 </r>
       <r>   -3.7323    1.0000 </r>
       <r>   -3.7303    1.0000 </r>
       <r>   -3.7182    1.0000 </r>
       <r>   -3.7174    1.0000 </r>
       <r>   -3.6101    1.0000 </r>
       <r>   -3.6062    1.0000 </r>
       <r>   -3.5868    1.0000 </r>
       <r>   -3.5826    1.0000 </r>
       <r>   -3.4982    1.0000 </r>
       <r>   -3.4943    1.0000 </r>
       <r>   -3.4553    1.0000 </r>
       <r>   -3.4534    1.0000 </r>
       <r>   -0.9311    1.0000 </r>
       <r>   -0.9259    1.0000 </r>
       <r>   -0.8939    1.0000 </r>
       <r>   -0.8890    1.0000 </r>
       <r>   -0.7203    1.0002 </r>
       <r>   -0.7134    1.0002 </r>
       <r>   -0.6633    1.0007 </r>
       <r>   -0.6605    1.0007 </r>
       <r>   -0.6388    1.0012 </r>
       <r>   -0.6355    1.0012 </r>
       <r>   -0.5919    1.0031 </r>
       <r>   -0.5897    1.0032 </r>
       <r>   -0.5853    1.0035 </r>
       <r>   -0.5799    1.0039 </r>
       <r>   -0.5329    1.0088 </r>
       <r>   -0.5299    1.0092 </r>
       <r>   -0.5244    1.0100 </r>
       <r>   -0.5127    1.0119 </r>
       <r>   -0.5093    1.0125 </r>
       <r>   -0.5040    1.0134 </r>
       <r>   -0.4719    1.0200 </r>
       <r>   -0.4659    1.0214 </r>
       <r>   -0.4341    1.0287 </r>
       <r>   -0.4317    1.0292 </r>
       <r>   -0.4260    1.0304 </r>
       <r>   -0.4223    1.0311 </r>
       <r>   -0.3898    1.0353 </r>
       <r>   -0.3870    1.0354 </r>
       <r>   -0.3838    1.0355 </r>
       <r>   -0.3764    1.0352 </r>
       <r>   -0.3555    1.0318 </r>
       <r>   -0.3496    1.0299 </r>
       <r>   -0.3237    1.0155 </r>
       <r>   -0.3228    1.0148 </r>
       <r>   -0.2919    0.9808 </r>
       <r>   -0.2903    0.9786 </r>
       <r>   -0.2864    0.9726 </r>
       <r>   -0.2802    0.9624 </r>
       <r>   -0.2461    0.8896 </r>
       <r>   -0.2415    0.8777 </r>
       <r>   -0.2132    0.7924 </r>
       <r>   -0.2103    0.7824 </r>
       <r>   -0.1912    0.7141 </r>
       <r>   -0.1897    0.7084 </r>
       <r>   -0.1369    0.4925 </r>
       <r>   -0.1349    0.4841 </r>
       <r>   -0.1000    0.3396 </r>
       <r>   -0.0964    0.3254 </r>
       <r>    0.0325   -0.0030 </r>
       <r>    0.0400   -0.0102 </r>
       <r>    0.0625   -0.0257 </r>
       <r>    0.0635   -0.0263 </r>
       <r>    0.1253   -0.0342 </r>
       <r>    0.1392   -0.0322 </r>
       <r>    0.1915   -0.0207 </r>
       <r>    0.2002   -0.0188 </r>
       <r>    0.2201   -0.0147 </r>
       <r>    0.2278   -0.0132 </r>
       <r>    0.3030   -0.0039 </r>
       <r>    0.3207   -0.0027 </r>
       <r>    0.4539   -0.0001 </r>
       <r>    0.4610   -0.0001 </r>
       <r>    0.4920   -0.0000 </r>
       <r>    0.4960   -0.0000 </r>
       <r>    0.6177   -0.0000 </r>
       <r>    0.6265   -0.0000 </r>
       <r>    0.6839   -0.0000 </r>
       <r>    0.6863   -0.0000 </r>
       <r>    0.7792   -0.0000 </r>
       <r>    0.7840   -0.0000 </r>
       <r>    0.8494   -0.0000 </r>
       <r>    0.8514   -0.0000 </r>
       <r>    0.9094   -0.0000 </r>
       <r>    0.9167   -0.0000 </r>
       <r>    0.9232   -0.0000 </r>
       <r>    0.9255   -0.0000 </r>
       <r>    1.0261   -0.0000 </r>
       <r>    1.0292   -0.0000 </r>
       <r>    1.1095   -0.0000 </r>
       <r>    1.1114   -0.0000 </r>
       <r>    5.5417    0.0000 </r>
      </set>
     </set>
    </set>
   </array>
  </eigenvalues>
  <separator name="orbital magnetization" >
   <v name="MAGDIPOLOUT">      0.00000000      0.00000000      0.00000000</v>
  </separator>
 </calculation>
 <structure name="finalpos" >
  <crystal>
   <varray name="basis" >
    <v>       9.40119100       0.00000000      -0.08412900 </v>
    <v>       0.00000000       5.35946700       0.00000000 </v>
    <v>       0.00000000       0.00000000      14.95565100 </v>
   </varray>
   <i name="volume">    753.54605297 </i>
   <varray name="rec_basis" >
    <v>       0.10636950       0.00000000       0.00000000 </v>
    <v>       0.00000000       0.18658572       0.00000000 </v>
    <v>       0.00059835       0.00000000       0.06686436 </v>
   </varray>
  </crystal>
  <varray name="positions" >
   <v>       0.16411200       0.48397600       0.17995900 </v>
   <v>       0.16411200       0.51602400       0.67995900 </v>
   <v>       0.66411200       0.98397600       0.17995900 </v>
   <v>       0.66411200       0.01602400       0.67995900 </v>
   <v>       0.17533200       0.47285200       0.97303200 </v>
   <v>       0.17533200       0.52714800       0.47303200 </v>
   <v>       0.67533200       0.97285200       0.97303200 </v>
   <v>       0.67533200       0.02714800       0.47303200 </v>
   <v>       0.33162900       0.02941400       0.82240100 </v>
   <v>       0.33162900       0.97058600       0.32240100 </v>
   <v>       0.83162900       0.52941400       0.82240100 </v>
   <v>       0.83162900       0.47058600       0.32240100 </v>
   <v>       0.33361900       0.00432000       0.51711500 </v>
   <v>       0.33361900       0.99568000       0.01711500 </v>
   <v>       0.83361900       0.50432000       0.51711500 </v>
   <v>       0.83361900       0.49568000       0.01711500 </v>
   <v>       0.30926400       0.26740800       0.92544800 </v>
   <v>       0.30926400       0.73259200       0.42544800 </v>
   <v>       0.80926400       0.76740800       0.92544800 </v>
   <v>       0.80926400       0.23259200       0.42544800 </v>
   <v>       0.00386100       0.36884200       0.24394900 </v>
   <v>       0.00386100       0.63115800       0.74394900 </v>
   <v>       0.50386100       0.86884200       0.24394900 </v>
   <v>       0.50386100       0.13115800       0.74394900 </v>
   <v>       0.02591400       0.39537700       0.57915900 </v>
   <v>       0.02591400       0.60462300       0.07915900 </v>
   <v>       0.52591400       0.89537700       0.57915900 </v>
   <v>       0.52591400       0.10462300       0.07915900 </v>
   <v>       0.17611800       0.21417000       0.08350500 </v>
   <v>       0.17611800       0.78583000       0.58350500 </v>
   <v>       0.67611800       0.71417000       0.08350500 </v>
   <v>       0.67611800       0.28583000       0.58350500 </v>
   <v>       0.18147400       0.20344500       0.73945400 </v>
   <v>       0.18147400       0.79655500       0.23945400 </v>
   <v>       0.68147400       0.70344500       0.73945400 </v>
   <v>       0.68147400       0.29655500       0.23945400 </v>
   <v>       0.18900300       0.20186000       0.42366300 </v>
   <v>       0.18900300       0.79814000       0.92366300 </v>
   <v>       0.68900300       0.70186000       0.42366300 </v>
   <v>       0.68900300       0.29814000       0.92366300 </v>
   <v>       0.29347700       0.34686800       0.57827500 </v>
   <v>       0.29347700       0.65313200       0.07827500 </v>
   <v>       0.79347700       0.84686800       0.57827500 </v>
   <v>       0.79347700       0.15313200       0.07827500 </v>
   <v>       0.30310600       0.30561100       0.24801900 </v>
   <v>       0.30310600       0.69438900       0.74801900 </v>
   <v>       0.80310600       0.80561100       0.24801900 </v>
   <v>       0.80310600       0.19438900       0.74801900 </v>
   <v>       0.49071400       0.13464800       0.42295500 </v>
   <v>       0.49071400       0.86535200       0.92295500 </v>
   <v>       0.99071400       0.63464800       0.42295500 </v>
   <v>       0.99071400       0.36535200       0.92295500 </v>
  </varray>
 </structure>
</modeling>
