<?xml version="1.0" encoding="ISO-8859-1"?>
<modeling>
 <generator>
  <i name="program" type="string">vasp </i>
  <i name="version" type="string">5.3.5  </i>
  <i name="subversion" type="string">31Mar14 (build Aug 29 2014 19:41:47) complex                          parallel </i>
  <i name="platform" type="string">LinuxIFC </i>
  <i name="date" type="string">2019 04 11 </i>
  <i name="time" type="string">13:42:30 </i>
 </generator>
 <incar>
  <i type="string" name="SYSTEM"> Fe4OF8_var_9</i>
  <i type="int" name="ISTART">     0</i>
  <i type="string" name="PREC">normal</i>
  <i type="string" name="ALGO"> VeryFast</i>
  <i type="int" name="ISPIN">     1</i>
  <i type="int" name="ICHARG">     2</i>
  <i type="int" name="NELM">   300</i>
  <i type="int" name="ISYM">     0</i>
  <i type="logical" name="LWAVE"> F  </i>
  <i type="int" name="NELM">   300</i>
 </incar>
 <kpoints>
  <generation param="Gamma">
   <v type="int" name="divisions">       1        1        1 </v>
   <v name="usershift">      0.00000000       0.00000000       0.00000000 </v>
   <v name="genvec1">      1.00000000       0.00000000       0.00000000 </v>
   <v name="genvec2">     -0.00000000       1.00000000      -0.00000000 </v>
   <v name="genvec3">     -0.00000000       0.00000000       1.00000000 </v>
   <v name="shift">      0.00000000       0.00000000       0.00000000 </v>
  </generation>
  <varray name="kpointlist" >
   <v>       0.00000000       0.00000000       0.00000000 </v>
  </varray>
  <varray name="weights" >
   <v>       1.00000000 </v>
  </varray>
 </kpoints>
 <parameters>
  <separator name="general" >
   <i type="string" name="SYSTEM">Fe4OF8_var_9</i>
   <i type="logical" name="LCOMPAT"> F  </i>
  </separator>
  <separator name="electronic" >
   <i type="string" name="PREC">normal</i>
   <i name="ENMAX">    400.00000000</i>
   <i name="ENAUG">    613.61400000</i>
   <i name="EDIFF">      0.00010000</i>
   <i type="int" name="IALGO">    48</i>
   <i type="int" name="IWAVPR">    10</i>
   <i type="int" name="NBANDS">   228</i>
   <i name="NELECT">    376.00000000</i>
   <i type="int" name="TURBO">     0</i>
   <i type="int" name="IRESTART">     0</i>
   <i type="int" name="NREBOOT">     0</i>
   <i type="int" name="NMIN">     0</i>
   <i name="EREF">      0.00000000</i>
   <separator name="electronic smearing" >
    <i type="int" name="ISMEAR">     1</i>
    <i name="SIGMA">      0.20000000</i>
    <i name="KSPACING">      0.50000000</i>
    <i type="logical" name="KGAMMA"> T  </i>
   </separator>
   <separator name="electronic projectors" >
    <i type="logical" name="LREAL"> F  </i>
    <v name="ROPT">      0.00000000      0.00000000      0.00000000</v>
    <i type="int" name="LMAXPAW">  -100</i>
    <i type="int" name="LMAXMIX">     2</i>
    <i type="logical" name="NLSPLINE"> F  </i>
   </separator>
   <separator name="electronic startup" >
    <i type="int" name="ISTART">     0</i>
    <i type="int" name="ICHARG">     2</i>
    <i type="int" name="INIWAV">     1</i>
   </separator>
   <separator name="electronic spin" >
    <i type="int" name="ISPIN">     1</i>
    <i type="logical" name="LNONCOLLINEAR"> F  </i>
    <v name="MAGMOM">      1.00000000      1.00000000      1.00000000      1.00000000      1.00000000      1.00000000      1.00000000      1.00000000      1.00000000      1.00000000      1.00000000      1.00000000      1.00000000      1.00000000      1.00000000      1.00000000      1.00000000      1.00000000      1.00000000      1.00000000
      1.00000000      1.00000000      1.00000000      1.00000000      1.00000000      1.00000000      1.00000000      1.00000000      1.00000000      1.00000000      1.00000000      1.00000000      1.00000000      1.00000000      1.00000000      1.00000000      1.00000000      1.00000000      1.00000000      1.00000000
      1.00000000      1.00000000      1.00000000      1.00000000      1.00000000      1.00000000      1.00000000      1.00000000      1.00000000      1.00000000      1.00000000      1.00000000</v>
    <i name="NUPDOWN">     -1.00000000</i>
    <i type="logical" name="LSORBIT"> F  </i>
    <v name="SAXIS">      0.00000000      0.00000000      1.00000000</v>
    <i type="logical" name="LSPIRAL"> F  </i>
    <v name="QSPIRAL">      0.00000000      0.00000000      0.00000000</v>
    <i type="logical" name="LZEROZ"> F  </i>
   </separator>
   <separator name="electronic exchange-correlation" >
    <i type="logical" name="LASPH"> F  </i>
    <i type="logical" name="LMETAGGA"> F  </i>
   </separator>
   <separator name="electronic convergence" >
    <i type="int" name="NELM">   300</i>
    <i type="int" name="NELMDL">   -12</i>
    <i type="int" name="NELMIN">     2</i>
    <i name="ENINI">    400.00000000</i>
    <separator name="electronic convergence detail" >
     <i type="logical" name="LDIAG"> T  </i>
     <i type="logical" name="LSUBROT"> F  </i>
     <i name="WEIMIN">      0.00000000</i>
     <i name="EBREAK">      0.00000011</i>
     <i name="DEPER">      0.30000000</i>
     <i type="int" name="NRMM">     4</i>
     <i name="TIME">      0.40000000</i>
    </separator>
   </separator>
   <separator name="electronic mixer" >
    <i name="AMIX">      0.40000000</i>
    <i name="BMIX">      1.00000000</i>
    <i name="AMIN">      0.10000000</i>
    <i name="AMIX_MAG">      1.60000000</i>
    <i name="BMIX_MAG">      1.00000000</i>
    <separator name="electronic mixer details" >
     <i type="int" name="IMIX">     4</i>
     <i type="int" name="MAXMIX">   -45</i>
     <i name="WC">    100.00000000</i>
     <i type="int" name="INIMIX">     1</i>
     <i type="int" name="MIXPRE">     1</i>
     <i type="int" name="MREMOVE">     5</i>
    </separator>
   </separator>
   <separator name="electronic dipolcorrection" >
    <i type="logical" name="LDIPOL"> F  </i>
    <i type="logical" name="LMONO"> F  </i>
    <i type="int" name="IDIPOL">     0</i>
    <i name="EPSILON">      1.00000000</i>
    <v name="DIPOL">   -100.00000000   -100.00000000   -100.00000000</v>
    <i name="EFIELD">      0.00000000</i>
   </separator>
  </separator>
  <separator name="grids" >
   <i type="int" name="NGX">    48</i>
   <i type="int" name="NGY">    28</i>
   <i type="int" name="NGZ">    80</i>
   <i type="int" name="NGXF">    96</i>
   <i type="int" name="NGYF">    56</i>
   <i type="int" name="NGZF">   160</i>
   <i type="logical" name="ADDGRID"> F  </i>
  </separator>
  <separator name="ionic" >
   <i type="int" name="NSW">     0</i>
   <i type="int" name="IBRION">    -1</i>
   <i type="int" name="ISIF">     2</i>
   <i name="PSTRESS">      0.00000000</i>
   <i name="EDIFFG">      0.00100000</i>
   <i type="int" name="NFREE">     0</i>
   <i name="POTIM">      0.50000000</i>
   <i name="SMASS">     -3.00000000</i>
   <i name="SCALEE">      1.00000000</i>
  </separator>
  <separator name="ionic md" >
   <i name="TEBEG">      0.00010000</i>
   <i name="TEEND">      0.00010000</i>
   <i type="int" name="NBLOCK">     1</i>
   <i type="int" name="KBLOCK">     1</i>
   <i type="int" name="NPACO">   256</i>
   <i name="APACO">     16.00000000</i>
  </separator>
  <separator name="symmetry" >
   <i type="int" name="ISYM">     0</i>
   <i name="SYMPREC">      0.00001000</i>
  </separator>
  <separator name="dos" >
   <i type="logical" name="LORBIT"> F  </i>
   <v name="RWIGS">     -1.00000000     -1.00000000     -1.00000000</v>
   <i type="int" name="NEDOS">   301</i>
   <i name="EMIN">     10.00000000</i>
   <i name="EMAX">    -10.00000000</i>
   <i name="EFERMI">      0.00000000</i>
  </separator>
  <separator name="writing" >
   <i type="int" name="NWRITE">     2</i>
   <i type="logical" name="LWAVE"> F  </i>
   <i type="logical" name="LCHARG"> T  </i>
   <i type="logical" name="LPARD"> F  </i>
   <i type="logical" name="LVTOT"> F  </i>
   <i type="logical" name="LVHAR"> F  </i>
   <i type="logical" name="LELF"> F  </i>
   <i type="logical" name="LOPTICS"> F  </i>
   <v name="STM">      0.00000000      0.00000000      0.00000000      0.00000000      0.00000000      0.00000000      0.00000000</v>
  </separator>
  <separator name="performance" >
   <i type="int" name="NPAR">     4</i>
   <i type="int" name="NSIM">     4</i>
   <i type="int" name="NBLK">    -1</i>
   <i type="logical" name="LPLANE"> T  </i>
   <i type="logical" name="LSCALAPACK"> T  </i>
   <i type="logical" name="LSCAAWARE"> F  </i>
   <i type="logical" name="LSCALU"> F  </i>
   <i type="logical" name="LASYNC"> F  </i>
   <i type="logical" name="LORBITALREAL"> F  </i>
  </separator>
  <separator name="miscellaneous" >
   <i type="int" name="IDIOT">     3</i>
   <i type="logical" name="LMUSIC"> F  </i>
   <v name="POMASS">     55.84700000     16.00000000     18.99800000</v>
   <v name="DARWINR">      0.00000000      0.00000000      0.00000000</v>
   <v name="DARWINV">      1.00000000      1.00000000      1.00000000</v>
   <i type="logical" name="LCORR"> T  </i>
  </separator>
  <i type="logical" name="GGA_COMPAT"> T  </i>
  <i type="logical" name="LBERRY"> F  </i>
  <i type="int" name="ICORELEVEL">     0</i>
  <i type="logical" name="LDAU"> F  </i>
  <i type="int" name="I_CONSTRAINED_M">     0</i>
  <separator name="electronic exchange-correlation" >
   <i type="string" name="GGA">--</i>
   <i type="int" name="VOSKOWN">     0</i>
   <i type="logical" name="LHFCALC"> F  </i>
   <i type="string" name="PRECFOCK"></i>
   <i type="logical" name="LSYMGRAD"> F  </i>
   <i type="logical" name="LHFONE"> F  </i>
   <i type="logical" name="LRHFCALC"> F  </i>
   <i type="logical" name="LTHOMAS"> F  </i>
   <i type="logical" name="LMODELHF"> F  </i>
   <i name="ENCUT4O">     -1.00000000</i>
   <i type="int" name="EXXOEP">     0</i>
   <i type="int" name="FOURORBIT">     0</i>
   <i name="AEXX">      0.00000000</i>
   <i name="HFALPHA">      0.00000000</i>
   <i name="MCALPHA">      0.00000000</i>
   <i name="ALDAX">      1.00000000</i>
   <i name="AGGAX">      1.00000000</i>
   <i name="ALDAC">      1.00000000</i>
   <i name="AGGAC">      1.00000000</i>
   <i type="int" name="NKREDX">     1</i>
   <i type="int" name="NKREDY">     1</i>
   <i type="int" name="NKREDZ">     1</i>
   <i type="logical" name="SHIFTRED"> F  </i>
   <i type="logical" name="ODDONLY"> F  </i>
   <i type="logical" name="EVENONLY"> F  </i>
   <i type="int" name="LMAXFOCK">     0</i>
   <i type="int" name="NMAXFOCKAE">     0</i>
   <i type="logical" name="LFOCKAEDFT"> F  </i>
   <i name="HFSCREEN">      0.00000000</i>
   <i name="HFSCREENC">      0.00000000</i>
   <i type="int" name="NBANDSGWLOW">     0</i>
  </separator>
  <separator name="vdW DFT" >
   <i type="logical" name="LUSE_VDW"> F  </i>
   <i name="Zab_VDW">     -0.84910000</i>
   <i name="PARAM1">      0.12340000</i>
   <i name="PARAM2">      1.00000000</i>
   <i name="PARAM3">      0.00000000</i>
  </separator>
  <separator name="model GW" >
   <i type="int" name="MODEL_GW">     0</i>
   <i name="MODEL_EPS0">      8.69476215</i>
   <i name="MODEL_ALPHA">      1.00000000</i>
  </separator>
  <separator name="linear response parameters" >
   <i type="logical" name="LEPSILON"> F  </i>
   <i type="logical" name="LRPA"> F  </i>
   <i type="logical" name="LNABLA"> F  </i>
   <i type="logical" name="LVEL"> F  </i>
   <i type="int" name="KINTER">     0</i>
   <i name="CSHIFT">      0.10000000</i>
   <i name="OMEGAMAX">     -1.00000000</i>
   <i name="DEG_THRESHOLD">      0.00200000</i>
  </separator>
  <separator name="orbital magnetization" >
   <i type="logical" name="NUCIND"> F  </i>
   <v name="MAGPOS">      0.00000000      0.00000000      0.00000000</v>
   <i type="logical" name="LNICSALL"> T  </i>
   <i type="logical" name="ORBITALMAG"> F  </i>
   <i type="logical" name="LMAGBLOCH"> F  </i>
   <i type="logical" name="LCHIMAG"> F  </i>
   <i type="logical" name="LGAUGE"> T  </i>
   <i type="int" name="MAGATOM">     0</i>
   <v name="MAGDIPOL">      0.00000000      0.00000000      0.00000000</v>
   <v name="AVECCONST">      0.00000000      0.00000000      0.00000000</v>
  </separator>
  <separator name="response functions" >
   <i type="logical" name="LADDER"> F  </i>
   <i type="logical" name="LFXC"> F  </i>
   <i type="logical" name="LHARTREE"> T  </i>
   <i type="int" name="IBSE">     0</i>
   <i type="logical" name="LTCTE"> F  </i>
   <i type="logical" name="LTETE"> F  </i>
   <i type="logical" name="LTRIPLET"> F  </i>
   <i type="logical" name="LFXCEPS"> F  </i>
   <i type="logical" name="LFXHEG"> F  </i>
   <i type="logical" name="L2ORDER"> F  </i>
   <i type="logical" name="LUSEW"> F  </i>
   <i name="ENCUTGW">     -2.00000000</i>
   <i name="ENCUTGWSOFT">     -2.00000000</i>
   <i name="ENCUTLF">     -1.00000000</i>
   <i type="int" name="LMAXMP2">    -1</i>
   <i name="SCISSOR">      0.00000000</i>
   <i type="int" name="NOMEGA">     0</i>
   <i type="int" name="NOMEGAR">     0</i>
   <i type="int" name="NBANDSGW">    -1</i>
   <i type="int" name="NBANDSO">    -1</i>
   <i type="int" name="NBANDSV">    -1</i>
   <i type="int" name="NELM">   300</i>
   <i type="int" name="DIM">     3</i>
   <i type="int" name="ANTIRES">     0</i>
   <i name="OMEGAMAX">    -30.00000000</i>
   <i name="OMEGAMIN">    -30.00000000</i>
   <i name="OMEGATL">   -200.00000000</i>
   <i type="int" name="OMEGAGRID">     0</i>
   <i name="CSHIFT">     -0.10000000</i>
   <i type="logical" name="SELFENERGY"> F  </i>
   <i type="logical" name="LSPECTRAL"> F  </i>
   <i type="logical" name="ODDONLYGW"> F  </i>
   <i type="logical" name="EVENONLYGW"> F  </i>
   <i type="int" name="NKREDLFX">     1</i>
   <i type="int" name="NKREDLFY">     1</i>
   <i type="int" name="NKREDLFZ">     1</i>
   <i type="int" name="MAXMEM">  1800</i>
   <i type="int" name="TELESCOPE">     0</i>
   <i type="int" name="TAUPAR">     1</i>
  </separator>
  <separator name="External order field" >
   <i name="OFIELD_KAPPA">      0.00000000</i>
   <v name="OFIELD_K">      0.00000000      0.00000000      0.00000000</v>
   <i name="OFIELD_Q6_NEAR">      0.00000000</i>
   <i name="OFIELD_Q6_FAR">      0.00000000</i>
   <i name="OFIELD_A">      0.00000000</i>
  </separator>
 </parameters>
 <atominfo>
  <atoms>      52 </atoms>
  <types>       3 </types>
  <array name="atoms" >
   <dimension dim="1">ion</dimension>
   <field type="string">element</field>
   <field type="int">atomtype</field>
   <set>
    <rc><c>Fe</c><c>   1</c></rc>
    <rc><c>Fe</c><c>   1</c></rc>
    <rc><c>Fe</c><c>   1</c></rc>
    <rc><c>Fe</c><c>   1</c></rc>
    <rc><c>Fe</c><c>   1</c></rc>
    <rc><c>Fe</c><c>   1</c></rc>
    <rc><c>Fe</c><c>   1</c></rc>
    <rc><c>Fe</c><c>   1</c></rc>
    <rc><c>Fe</c><c>   1</c></rc>
    <rc><c>Fe</c><c>   1</c></rc>
    <rc><c>Fe</c><c>   1</c></rc>
    <rc><c>Fe</c><c>   1</c></rc>
    <rc><c>Fe</c><c>   1</c></rc>
    <rc><c>Fe</c><c>   1</c></rc>
    <rc><c>Fe</c><c>   1</c></rc>
    <rc><c>Fe</c><c>   1</c></rc>
    <rc><c>O </c><c>   2</c></rc>
    <rc><c>O </c><c>   2</c></rc>
    <rc><c>O </c><c>   2</c></rc>
    <rc><c>O </c><c>   2</c></rc>
    <rc><c>F </c><c>   3</c></rc>
    <rc><c>F </c><c>   3</c></rc>
    <rc><c>F </c><c>   3</c></rc>
    <rc><c>F </c><c>   3</c></rc>
    <rc><c>F </c><c>   3</c></rc>
    <rc><c>F </c><c>   3</c></rc>
    <rc><c>F </c><c>   3</c></rc>
    <rc><c>F </c><c>   3</c></rc>
    <rc><c>F </c><c>   3</c></rc>
    <rc><c>F </c><c>   3</c></rc>
    <rc><c>F </c><c>   3</c></rc>
    <rc><c>F </c><c>   3</c></rc>
    <rc><c>F </c><c>   3</c></rc>
    <rc><c>F </c><c>   3</c></rc>
    <rc><c>F </c><c>   3</c></rc>
    <rc><c>F </c><c>   3</c></rc>
    <rc><c>F </c><c>   3</c></rc>
    <rc><c>F </c><c>   3</c></rc>
    <rc><c>F </c><c>   3</c></rc>
    <rc><c>F </c><c>   3</c></rc>
    <rc><c>F </c><c>   3</c></rc>
    <rc><c>F </c><c>   3</c></rc>
    <rc><c>F </c><c>   3</c></rc>
    <rc><c>F </c><c>   3</c></rc>
    <rc><c>F </c><c>   3</c></rc>
    <rc><c>F </c><c>   3</c></rc>
    <rc><c>F </c><c>   3</c></rc>
    <rc><c>F </c><c>   3</c></rc>
    <rc><c>F </c><c>   3</c></rc>
    <rc><c>F </c><c>   3</c></rc>
    <rc><c>F </c><c>   3</c></rc>
    <rc><c>F </c><c>   3</c></rc>
   </set>
  </array>
  <array name="atomtypes" >
   <dimension dim="1">type</dimension>
   <field type="int">atomspertype</field>
   <field type="string">element</field>
   <field>mass</field>
   <field>valence</field>
   <field type="string">pseudopotential</field>
   <set>
    <rc><c>  16</c><c>Fe</c><c>     55.84700000</c><c>      8.00000000</c><c>  PAW_PBE Fe 06Sep2000                  </c></rc>
    <rc><c>   4</c><c>O </c><c>     16.00000000</c><c>      6.00000000</c><c>  PAW_PBE O 08Apr2002                   </c></rc>
    <rc><c>  32</c><c>F </c><c>     18.99800000</c><c>      7.00000000</c><c>  PAW_PBE F 08Apr2002                   </c></rc>
   </set>
  </array>
 </atominfo>
 <structure name="initialpos" >
  <crystal>
   <varray name="basis" >
    <v>       9.40119100       0.00000000      -0.08412900 </v>
    <v>       0.00000000       5.35946700       0.00000000 </v>
    <v>       0.00000000      -0.07378100      14.95565100 </v>
   </varray>
   <i name="volume">    753.54605297 </i>
   <varray name="rec_basis" >
    <v>       0.10636950       0.00000000       0.00000000 </v>
    <v>       0.00000824       0.18658572       0.00092049 </v>
    <v>       0.00059835       0.00000000       0.06686436 </v>
   </varray>
  </crystal>
  <varray name="positions" >
   <v>       0.16411200       0.48397600       0.17995900 </v>
   <v>       0.16411200       0.51602400       0.68619400 </v>
   <v>       0.66411200       0.98397600       0.17995900 </v>
   <v>       0.66411200       0.01602400       0.67995900 </v>
   <v>       0.17533200       0.47285200       0.97303200 </v>
   <v>       0.17533200       0.52714800       0.47303200 </v>
   <v>       0.67533200       0.97285200       0.96753600 </v>
   <v>       0.67533200       0.02714800       0.47303200 </v>
   <v>       0.33162900       0.02941400       0.82240100 </v>
   <v>       0.33162900       0.97058600       0.32240100 </v>
   <v>       0.83162900       0.52758300       0.82240100 </v>
   <v>       0.83373100       0.47058600       0.32240100 </v>
   <v>       0.33361900       0.00432000       0.51711500 </v>
   <v>       0.33361900       0.00174000       0.01711500 </v>
   <v>       0.83361900       0.50432000       0.51711500 </v>
   <v>       0.83361900       0.49568000       0.01711500 </v>
   <v>       0.30926400       0.26740800       0.92544800 </v>
   <v>       0.30926400       0.73259200       0.42544800 </v>
   <v>       0.81159200       0.76740800       0.92544800 </v>
   <v>       0.80926400       0.23259200       0.42544800 </v>
   <v>       0.99825600       0.36884200       0.24394900 </v>
   <v>       0.00386100       0.63115800       0.74394900 </v>
   <v>       0.50386100       0.86884200       0.24394900 </v>
   <v>       0.50386100       0.13115800       0.74178500 </v>
   <v>       0.02591400       0.39537700       0.58770000 </v>
   <v>       0.03031000       0.60462300       0.07915900 </v>
   <v>       0.52591400       0.90042900       0.57915900 </v>
   <v>       0.53414400       0.10462300       0.07915900 </v>
   <v>       0.17611800       0.21417000       0.08350500 </v>
   <v>       0.17611800       0.78418200       0.58350500 </v>
   <v>       0.67611800       0.71417000       0.08350500 </v>
   <v>       0.67611800       0.28506200       0.58350500 </v>
   <v>       0.18147400       0.20344500       0.73945400 </v>
   <v>       0.17847700       0.79655500       0.23945400 </v>
   <v>       0.68147400       0.70344500       0.73945400 </v>
   <v>       0.68147400       0.29655500       0.23945400 </v>
   <v>       0.18900300       0.20186000       0.42366300 </v>
   <v>       0.18900300       0.79814000       0.92366300 </v>
   <v>       0.68900300       0.70186000       0.42366300 </v>
   <v>       0.68035700       0.29814000       0.92366300 </v>
   <v>       0.29347700       0.34686800       0.57827500 </v>
   <v>       0.29347700       0.65313200       0.07827500 </v>
   <v>       0.79347700       0.85549900       0.57032000 </v>
   <v>       0.79347700       0.15313200       0.07827500 </v>
   <v>       0.30310600       0.30561100       0.23902000 </v>
   <v>       0.29812600       0.69438900       0.74801900 </v>
   <v>       0.79441900       0.80561100       0.24801900 </v>
   <v>       0.80310600       0.19438900       0.74801900 </v>
   <v>       0.48845000       0.13464800       0.42295500 </v>
   <v>       0.48656600       0.86479900       0.92295500 </v>
   <v>       0.99071400       0.63464800       0.42295500 </v>
   <v>       0.99071400       0.36535200       0.92295500 </v>
  </varray>
 </structure>
 <calculation>
  <scstep>
   <time name="diag">    0.73    0.92</time>
   <time name="diis">    1.18    1.62</time>
   <time name="orth">    0.18    0.23</time>
   <time name="total">    2.47    3.38</time>
   <energy>
    <i name="alphaZ">   1136.56246079 </i>
    <i name="ewald"> -19688.67025682 </i>
    <i name="hartreedc"> -12198.22802184 </i>
    <i name="XCdc">   1336.29856410 </i>
    <i name="pawpsdc">  27518.38149996 </i>
    <i name="pawaedc"> -27812.06485035 </i>
    <i name="eentropy">     -0.07555141 </i>
    <i name="bandstr">   2151.40779096 </i>
    <i name="atom">  32340.34786160 </i>
    <i name="e_fr_energy">   4783.95949699 </i>
    <i name="e_wo_entrp">   4784.03504840 </i>
    <i name="e_0_energy">   4783.98468079 </i>
   </energy>
  </scstep>
  <scstep>
   <time name="diag">    0.56    0.81</time>
   <time name="diis">    1.15    1.59</time>
   <time name="orth">    0.18    0.25</time>
   <time name="total">    1.88    2.65</time>
   <energy>
    <i name="e_fr_energy">   1592.99967484 </i>
    <i name="e_wo_entrp">   1592.92128089 </i>
    <i name="e_0_energy">   1592.97354353 </i>
   </energy>
  </scstep>
  <scstep>
   <time name="diag">    0.49    0.70</time>
   <time name="diis">    1.11    1.73</time>
   <time name="orth">    0.20    0.30</time>
   <time name="total">    1.79    2.73</time>
   <energy>
    <i name="e_fr_energy">    553.55374750 </i>
    <i name="e_wo_entrp">    553.05264219 </i>
    <i name="e_0_energy">    553.38671240 </i>
   </energy>
  </scstep>
  <scstep>
   <time name="diag">    0.48    0.62</time>
   <time name="diis">    1.12    1.66</time>
   <time name="orth">    0.12    0.23</time>
   <time name="total">    1.72    2.51</time>
   <energy>
    <i name="e_fr_energy">    126.53401417 </i>
    <i name="e_wo_entrp">    126.53130746 </i>
    <i name="e_0_energy">    126.53311193 </i>
   </energy>
  </scstep>
  <scstep>
   <time name="diag">    0.55    0.84</time>
   <time name="diis">    1.11    1.64</time>
   <time name="orth">    0.16    0.27</time>
   <time name="total">    1.81    2.76</time>
   <energy>
    <i name="e_fr_energy">   -124.81928057 </i>
    <i name="e_wo_entrp">   -124.84128533 </i>
    <i name="e_0_energy">   -124.82661549 </i>
   </energy>
  </scstep>
  <scstep>
   <time name="diag">    0.46    0.70</time>
   <time name="diis">    0.99    1.48</time>
   <time name="orth">    0.17    0.26</time>
   <time name="total">    1.62    2.44</time>
   <energy>
    <i name="e_fr_energy">   -239.18067402 </i>
    <i name="e_wo_entrp">   -239.20413926 </i>
    <i name="e_0_energy">   -239.18849577 </i>
   </energy>
  </scstep>
  <scstep>
   <time name="diag">    0.51    0.72</time>
   <time name="diis">    1.04    1.53</time>
   <time name="orth">    0.30    0.50</time>
   <time name="total">    1.86    2.77</time>
   <energy>
    <i name="e_fr_energy">   -295.60395086 </i>
    <i name="e_wo_entrp">   -295.66593229 </i>
    <i name="e_0_energy">   -295.62461134 </i>
   </energy>
  </scstep>
  <scstep>
   <time name="diag">    0.56    0.87</time>
   <time name="diis">    1.20    1.65</time>
   <time name="orth">    0.11    0.22</time>
   <time name="total">    1.88    2.74</time>
   <energy>
    <i name="e_fr_energy">   -316.95147156 </i>
    <i name="e_wo_entrp">   -316.99650505 </i>
    <i name="e_0_energy">   -316.96648272 </i>
   </energy>
  </scstep>
  <scstep>
   <time name="diag">    0.65    1.10</time>
   <time name="diis">    3.38    4.68</time>
   <time name="orth">    0.12    0.23</time>
   <time name="total">    4.16    6.01</time>
   <energy>
    <i name="e_fr_energy">   -336.54787881 </i>
    <i name="e_wo_entrp">   -336.56199342 </i>
    <i name="e_0_energy">   -336.55258368 </i>
   </energy>
  </scstep>
  <scstep>
   <time name="diag">    0.71    1.10</time>
   <time name="diis">    3.68    4.80</time>
   <time name="orth">    0.12    0.20</time>
   <time name="total">    4.51    6.11</time>
   <energy>
    <i name="e_fr_energy">   -336.98149494 </i>
    <i name="e_wo_entrp">   -337.00437828 </i>
    <i name="e_0_energy">   -336.98912272 </i>
   </energy>
  </scstep>
  <scstep>
   <time name="diag">    0.66    0.94</time>
   <time name="diis">    3.12    4.71</time>
   <time name="orth">    0.20    0.22</time>
   <time name="total">    3.97    5.86</time>
   <energy>
    <i name="e_fr_energy">   -337.27099468 </i>
    <i name="e_wo_entrp">   -337.29021352 </i>
    <i name="e_0_energy">   -337.27740096 </i>
   </energy>
  </scstep>
  <scstep>
   <time name="diag">    0.51    0.74</time>
   <time name="diis">    2.71    3.89</time>
   <time name="orth">    0.11    0.22</time>
   <time name="total">    3.45    5.02</time>
   <energy>
    <i name="e_fr_energy">   -337.37491608 </i>
    <i name="e_wo_entrp">   -337.39116268 </i>
    <i name="e_0_energy">   -337.38033161 </i>
   </energy>
  </scstep>
  <scstep>
   <time name="diag">    0.60    0.87</time>
   <time name="diis">    2.36    3.14</time>
   <time name="orth">    0.24    0.29</time>
   <time name="total">    3.67    4.93</time>
   <energy>
    <i name="e_fr_energy">   -330.66651820 </i>
    <i name="e_wo_entrp">   -330.46345196 </i>
    <i name="e_0_energy">   -330.59882945 </i>
   </energy>
  </scstep>
  <scstep>
   <time name="diag">    0.60    0.73</time>
   <time name="diis">    2.48    3.37</time>
   <time name="orth">    0.18    0.27</time>
   <time name="total">    3.66    4.83</time>
   <energy>
    <i name="e_fr_energy">   -376.67449642 </i>
    <i name="e_wo_entrp">   -376.52544214 </i>
    <i name="e_0_energy">   -376.62481166 </i>
   </energy>
  </scstep>
  <scstep>
   <time name="diag">    0.51    0.61</time>
   <time name="diis">    2.05    3.32</time>
   <time name="orth">    0.10    0.15</time>
   <time name="total">    3.01    4.67</time>
   <energy>
    <i name="e_fr_energy">   -323.85478404 </i>
    <i name="e_wo_entrp">   -323.85265401 </i>
    <i name="e_0_energy">   -323.85407403 </i>
   </energy>
  </scstep>
  <scstep>
   <time name="diag">    0.43    0.51</time>
   <time name="diis">    2.24    3.21</time>
   <time name="orth">    0.24    0.26</time>
   <time name="total">    3.31    4.45</time>
   <energy>
    <i name="e_fr_energy">   -305.65335305 </i>
    <i name="e_wo_entrp">   -305.67151947 </i>
    <i name="e_0_energy">   -305.65940852 </i>
   </energy>
  </scstep>
  <scstep>
   <time name="diag">    0.72    1.08</time>
   <time name="diis">    2.13    3.05</time>
   <time name="orth">    0.22    0.24</time>
   <time name="total">    3.54    5.04</time>
   <energy>
    <i name="e_fr_energy">   -399.82897496 </i>
    <i name="e_wo_entrp">   -399.75847361 </i>
    <i name="e_0_energy">   -399.80547451 </i>
   </energy>
  </scstep>
  <scstep>
   <time name="diag">    0.42    0.61</time>
   <time name="diis">    2.17    3.19</time>
   <time name="orth">    0.11    0.13</time>
   <time name="total">    3.15    4.60</time>
   <energy>
    <i name="e_fr_energy">   -355.97462944 </i>
    <i name="e_wo_entrp">   -356.00383709 </i>
    <i name="e_0_energy">   -355.98436532 </i>
   </energy>
  </scstep>
  <scstep>
   <time name="diag">    0.63    0.91</time>
   <time name="diis">    2.07    3.02</time>
   <time name="orth">    0.57    0.89</time>
   <time name="total">    3.71    5.37</time>
   <energy>
    <i name="e_fr_energy">   -340.25963171 </i>
    <i name="e_wo_entrp">   -340.18136990 </i>
    <i name="e_0_energy">   -340.23354444 </i>
   </energy>
  </scstep>
  <scstep>
   <time name="diag">    0.56    0.73</time>
   <time name="diis">    2.21    3.27</time>
   <time name="orth">    0.13    0.18</time>
   <time name="total">    3.32    4.81</time>
   <energy>
    <i name="e_fr_energy">   -337.82688676 </i>
    <i name="e_wo_entrp">   -337.74165629 </i>
    <i name="e_0_energy">   -337.79847661 </i>
   </energy>
  </scstep>
  <scstep>
   <time name="diag">    0.31    0.53</time>
   <time name="diis">    2.21    3.17</time>
   <time name="orth">    0.20    0.36</time>
   <time name="total">    3.12    4.63</time>
   <energy>
    <i name="e_fr_energy">   -337.65605414 </i>
    <i name="e_wo_entrp">   -337.59198720 </i>
    <i name="e_0_energy">   -337.63469849 </i>
   </energy>
  </scstep>
  <scstep>
   <time name="diag">    0.76    0.83</time>
   <time name="diis">    2.26    3.08</time>
   <time name="orth">    0.12    0.16</time>
   <time name="total">    3.67    4.81</time>
   <energy>
    <i name="e_fr_energy">   -326.76700856 </i>
    <i name="e_wo_entrp">   -326.67927504 </i>
    <i name="e_0_energy">   -326.73776406 </i>
   </energy>
  </scstep>
  <scstep>
   <time name="diag">    0.60    0.91</time>
   <time name="diis">    2.28    3.25</time>
   <time name="orth">    0.12    0.17</time>
   <time name="total">    3.39    4.95</time>
   <energy>
    <i name="e_fr_energy">   -308.97823507 </i>
    <i name="e_wo_entrp">   -308.80983955 </i>
    <i name="e_0_energy">   -308.92210323 </i>
   </energy>
  </scstep>
  <scstep>
   <time name="diag">    0.47    0.70</time>
   <time name="diis">    2.40    3.57</time>
   <time name="orth">    0.15    0.16</time>
   <time name="total">    3.51    5.10</time>
   <energy>
    <i name="e_fr_energy">   -294.68425390 </i>
    <i name="e_wo_entrp">   -294.55235134 </i>
    <i name="e_0_energy">   -294.64028638 </i>
   </energy>
  </scstep>
  <scstep>
   <time name="diag">    0.48    0.69</time>
   <time name="diis">    2.36    3.27</time>
   <time name="orth">    0.09    0.16</time>
   <time name="total">    3.17    4.58</time>
   <energy>
    <i name="e_fr_energy">   -300.93650005 </i>
    <i name="e_wo_entrp">   -300.90704533 </i>
    <i name="e_0_energy">   -300.92668181 </i>
   </energy>
  </scstep>
  <scstep>
   <time name="diag">    0.40    0.63</time>
   <time name="diis">    2.47    3.22</time>
   <time name="orth">    0.16    0.26</time>
   <time name="total">    3.33    4.54</time>
   <energy>
    <i name="e_fr_energy">   -284.21827087 </i>
    <i name="e_wo_entrp">   -284.06990809 </i>
    <i name="e_0_energy">   -284.16881661 </i>
   </energy>
  </scstep>
  <scstep>
   <time name="diag">    0.95    1.44</time>
   <time name="diis">    2.00    3.28</time>
   <time name="orth">    0.40    0.59</time>
   <time name="total">    3.92    5.98</time>
   <energy>
    <i name="e_fr_energy">   -280.33219783 </i>
    <i name="e_wo_entrp">   -280.33176041 </i>
    <i name="e_0_energy">   -280.33205202 </i>
   </energy>
  </scstep>
  <scstep>
   <time name="diag">    0.46    0.69</time>
   <time name="diis">    2.20    3.34</time>
   <time name="orth">    0.14    0.23</time>
   <time name="total">    3.09    4.72</time>
   <energy>
    <i name="e_fr_energy">   -278.69261502 </i>
    <i name="e_wo_entrp">   -278.65025606 </i>
    <i name="e_0_energy">   -278.67849537 </i>
   </energy>
  </scstep>
  <scstep>
   <time name="diag">    0.73    1.15</time>
   <time name="diis">    2.19    3.27</time>
   <time name="orth">    0.16    0.26</time>
   <time name="total">    3.59    5.39</time>
   <energy>
    <i name="e_fr_energy">   -277.49289002 </i>
    <i name="e_wo_entrp">   -277.45158317 </i>
    <i name="e_0_energy">   -277.47912107 </i>
   </energy>
  </scstep>
  <scstep>
   <time name="diag">    0.54    0.70</time>
   <time name="diis">    2.36    3.39</time>
   <time name="orth">    0.22    0.29</time>
   <time name="total">    3.58    5.06</time>
   <energy>
    <i name="e_fr_energy">   -277.72238426 </i>
    <i name="e_wo_entrp">   -277.61174235 </i>
    <i name="e_0_energy">   -277.68550362 </i>
   </energy>
  </scstep>
  <scstep>
   <time name="diag">    0.38    0.52</time>
   <time name="diis">    2.12    3.05</time>
   <time name="orth">    0.43    0.71</time>
   <time name="total">    3.33    4.97</time>
   <energy>
    <i name="e_fr_energy">   -277.39706914 </i>
    <i name="e_wo_entrp">   -277.27739362 </i>
    <i name="e_0_energy">   -277.35717730 </i>
   </energy>
  </scstep>
  <scstep>
   <time name="diag">    0.59    1.04</time>
   <time name="diis">    2.80    3.17</time>
   <time name="orth">    0.15    0.24</time>
   <time name="total">    4.12    5.19</time>
   <energy>
    <i name="e_fr_energy">   -277.30147031 </i>
    <i name="e_wo_entrp">   -277.18555032 </i>
    <i name="e_0_energy">   -277.26283032 </i>
   </energy>
  </scstep>
  <scstep>
   <time name="diag">    0.54    0.73</time>
   <time name="diis">    2.46    2.89</time>
   <time name="orth">    0.24    0.31</time>
   <time name="total">    3.78    4.54</time>
   <energy>
    <i name="e_fr_energy">   -277.29863419 </i>
    <i name="e_wo_entrp">   -277.17538787 </i>
    <i name="e_0_energy">   -277.25755209 </i>
   </energy>
  </scstep>
  <scstep>
   <time name="diag">    0.56    0.72</time>
   <time name="diis">    2.49    3.17</time>
   <time name="orth">    0.30    0.36</time>
   <time name="total">    3.93    4.86</time>
   <energy>
    <i name="e_fr_energy">   -277.40920644 </i>
    <i name="e_wo_entrp">   -277.28226009 </i>
    <i name="e_0_energy">   -277.36689099 </i>
   </energy>
  </scstep>
  <scstep>
   <time name="diag">    0.83    0.97</time>
   <time name="diis">    2.40    3.26</time>
   <time name="orth">    0.10    0.18</time>
   <time name="total">    3.72    5.00</time>
   <energy>
    <i name="e_fr_energy">   -277.32213385 </i>
    <i name="e_wo_entrp">   -277.19429961 </i>
    <i name="e_0_energy">   -277.27952244 </i>
   </energy>
  </scstep>
  <scstep>
   <time name="diag">    0.61    0.85</time>
   <time name="diis">    2.57    3.49</time>
   <time name="orth">    0.16    0.18</time>
   <time name="total">    3.83    5.22</time>
   <energy>
    <i name="e_fr_energy">   -277.29032109 </i>
    <i name="e_wo_entrp">   -277.16546140 </i>
    <i name="e_0_energy">   -277.24870119 </i>
   </energy>
  </scstep>
  <scstep>
   <time name="diag">    0.34    0.55</time>
   <time name="diis">    1.97    3.05</time>
   <time name="orth">    0.13    0.17</time>
   <time name="total">    2.89    4.44</time>
   <energy>
    <i name="e_fr_energy">   -277.30867163 </i>
    <i name="e_wo_entrp">   -277.16876190 </i>
    <i name="e_0_energy">   -277.26203506 </i>
   </energy>
  </scstep>
  <scstep>
   <time name="diag">    0.56    0.72</time>
   <time name="diis">    2.08    2.87</time>
   <time name="orth">    0.18    0.27</time>
   <time name="total">    3.13    4.37</time>
   <energy>
    <i name="e_fr_energy">   -277.29771106 </i>
    <i name="e_wo_entrp">   -277.16510081 </i>
    <i name="e_0_energy">   -277.25350764 </i>
   </energy>
  </scstep>
  <scstep>
   <time name="diag">    0.49    0.82</time>
   <time name="diis">    1.80    2.71</time>
   <time name="orth">    0.11    0.13</time>
   <time name="total">    2.76    4.17</time>
   <energy>
    <i name="e_fr_energy">   -277.32955673 </i>
    <i name="e_wo_entrp">   -277.19087385 </i>
    <i name="e_0_energy">   -277.28332910 </i>
   </energy>
  </scstep>
  <scstep>
   <time name="diag">    0.58    0.79</time>
   <time name="diis">    2.34    3.06</time>
   <time name="orth">    0.15    0.18</time>
   <time name="total">    3.50    4.54</time>
   <energy>
    <i name="e_fr_energy">   -278.02303022 </i>
    <i name="e_wo_entrp">   -277.89885518 </i>
    <i name="e_0_energy">   -277.98163854 </i>
   </energy>
  </scstep>
  <scstep>
   <time name="diag">    0.55    0.88</time>
   <time name="diis">    2.33    3.26</time>
   <time name="orth">    0.07    0.13</time>
   <time name="total">    3.39    4.78</time>
   <energy>
    <i name="e_fr_energy">   -277.59070088 </i>
    <i name="e_wo_entrp">   -277.46612127 </i>
    <i name="e_0_energy">   -277.54917435 </i>
   </energy>
  </scstep>
  <scstep>
   <time name="diag">    0.35    0.45</time>
   <time name="diis">    2.16    3.37</time>
   <time name="orth">    0.23    0.33</time>
   <time name="total">    3.09    4.74</time>
   <energy>
    <i name="e_fr_energy">   -278.54309370 </i>
    <i name="e_wo_entrp">   -278.45205471 </i>
    <i name="e_0_energy">   -278.51274737 </i>
   </energy>
  </scstep>
  <scstep>
   <time name="diag">    0.51    0.54</time>
   <time name="diis">    2.46    3.42</time>
   <time name="orth">    0.28    0.46</time>
   <time name="total">    3.70    5.02</time>
   <energy>
    <i name="e_fr_energy">   -277.98182544 </i>
    <i name="e_wo_entrp">   -277.85780900 </i>
    <i name="e_0_energy">   -277.94048663 </i>
   </energy>
  </scstep>
  <scstep>
   <time name="diag">    0.58    0.70</time>
   <time name="diis">    2.33    3.49</time>
   <time name="orth">    0.12    0.18</time>
   <time name="total">    3.46    4.96</time>
   <energy>
    <i name="e_fr_energy">   -277.97373065 </i>
    <i name="e_wo_entrp">   -277.88408249 </i>
    <i name="e_0_energy">   -277.94384793 </i>
   </energy>
  </scstep>
  <scstep>
   <time name="diag">    0.53    0.75</time>
   <time name="diis">    2.31    3.39</time>
   <time name="orth">    0.17    0.19</time>
   <time name="total">    3.44    4.93</time>
   <energy>
    <i name="e_fr_energy">   -277.41206887 </i>
    <i name="e_wo_entrp">   -277.29672806 </i>
    <i name="e_0_energy">   -277.37362194 </i>
   </energy>
  </scstep>
  <scstep>
   <time name="diag">    0.43    0.65</time>
   <time name="diis">    2.17    3.16</time>
   <time name="orth">    0.18    0.25</time>
   <time name="total">    3.19    4.78</time>
   <energy>
    <i name="e_fr_energy">   -277.31733620 </i>
    <i name="e_wo_entrp">   -277.17283233 </i>
    <i name="e_0_energy">   -277.26916824 </i>
   </energy>
  </scstep>
  <scstep>
   <time name="diag">    0.30    0.38</time>
   <time name="diis">    2.44    3.39</time>
   <time name="orth">    0.11    0.21</time>
   <time name="total">    3.19    4.41</time>
   <energy>
    <i name="e_fr_energy">   -277.12245176 </i>
    <i name="e_wo_entrp">   -276.99243292 </i>
    <i name="e_0_energy">   -277.07911215 </i>
   </energy>
  </scstep>
  <scstep>
   <time name="diag">    0.37    0.54</time>
   <time name="diis">    2.12    3.25</time>
   <time name="orth">    0.14    0.23</time>
   <time name="total">    3.08    4.75</time>
   <energy>
    <i name="e_fr_energy">   -276.70295687 </i>
    <i name="e_wo_entrp">   -276.54379712 </i>
    <i name="e_0_energy">   -276.64990362 </i>
   </energy>
  </scstep>
  <scstep>
   <time name="diag">    0.54    0.69</time>
   <time name="diis">    2.05    3.12</time>
   <time name="orth">    0.16    0.22</time>
   <time name="total">    3.13    4.58</time>
   <energy>
    <i name="e_fr_energy">   -276.72134484 </i>
    <i name="e_wo_entrp">   -276.61853520 </i>
    <i name="e_0_energy">   -276.68707496 </i>
   </energy>
  </scstep>
  <scstep>
   <time name="diag">    0.42    0.61</time>
   <time name="diis">    2.05    2.99</time>
   <time name="orth">    0.17    0.27</time>
   <time name="total">    3.13    4.65</time>
   <energy>
    <i name="e_fr_energy">   -276.60874466 </i>
    <i name="e_wo_entrp">   -276.50636908 </i>
    <i name="e_0_energy">   -276.57461947 </i>
   </energy>
  </scstep>
  <scstep>
   <time name="diag">    0.65    0.94</time>
   <time name="diis">    1.93    2.87</time>
   <time name="orth">    0.12    0.15</time>
   <time name="total">    3.24    4.63</time>
   <energy>
    <i name="e_fr_energy">   -276.64685353 </i>
    <i name="e_wo_entrp">   -276.56456591 </i>
    <i name="e_0_energy">   -276.61942432 </i>
   </energy>
  </scstep>
  <scstep>
   <time name="diag">    0.82    1.05</time>
   <time name="diis">    1.99    3.17</time>
   <time name="orth">    0.11    0.16</time>
   <time name="total">    3.37    4.91</time>
   <energy>
    <i name="e_fr_energy">   -276.58320579 </i>
    <i name="e_wo_entrp">   -276.50368356 </i>
    <i name="e_0_energy">   -276.55669838 </i>
   </energy>
  </scstep>
  <scstep>
   <time name="diag">    0.58    0.91</time>
   <time name="diis">    2.06    3.00</time>
   <time name="orth">    0.11    0.21</time>
   <time name="total">    3.25    4.89</time>
   <energy>
    <i name="e_fr_energy">   -276.58479253 </i>
    <i name="e_wo_entrp">   -276.51707076 </i>
    <i name="e_0_energy">   -276.56221860 </i>
   </energy>
  </scstep>
  <scstep>
   <time name="diag">    0.62    1.05</time>
   <time name="diis">    2.01    3.07</time>
   <time name="orth">    0.21    0.28</time>
   <time name="total">    3.41    5.21</time>
   <energy>
    <i name="e_fr_energy">   -276.56215883 </i>
    <i name="e_wo_entrp">   -276.49890613 </i>
    <i name="e_0_energy">   -276.54107460 </i>
   </energy>
  </scstep>
  <scstep>
   <time name="diag">    0.45    0.66</time>
   <time name="diis">    2.24    3.11</time>
   <time name="orth">    0.13    0.16</time>
   <time name="total">    3.48    4.81</time>
   <energy>
    <i name="e_fr_energy">   -276.55527122 </i>
    <i name="e_wo_entrp">   -276.50885286 </i>
    <i name="e_0_energy">   -276.53979843 </i>
   </energy>
  </scstep>
  <scstep>
   <time name="diag">    0.63    0.75</time>
   <time name="diis">    2.39    3.14</time>
   <time name="orth">    0.17    0.29</time>
   <time name="total">    3.72    4.89</time>
   <energy>
    <i name="e_fr_energy">   -276.53221850 </i>
    <i name="e_wo_entrp">   -276.49375030 </i>
    <i name="e_0_energy">   -276.51939576 </i>
   </energy>
  </scstep>
  <scstep>
   <time name="diag">    0.35    0.59</time>
   <time name="diis">    1.92    3.21</time>
   <time name="orth">    0.09    0.15</time>
   <time name="total">    2.84    4.77</time>
   <energy>
    <i name="e_fr_energy">   -276.54512377 </i>
    <i name="e_wo_entrp">   -276.51159210 </i>
    <i name="e_0_energy">   -276.53394655 </i>
   </energy>
  </scstep>
  <scstep>
   <time name="diag">    0.37    0.51</time>
   <time name="diis">    2.06    3.03</time>
   <time name="orth">    0.15    0.21</time>
   <time name="total">    2.86    4.08</time>
   <energy>
    <i name="e_fr_energy">   -276.54174208 </i>
    <i name="e_wo_entrp">   -276.52835165 </i>
    <i name="e_0_energy">   -276.53727860 </i>
   </energy>
  </scstep>
  <scstep>
   <time name="diag">    0.56    0.84</time>
   <time name="diis">    2.30    2.85</time>
   <time name="orth">    0.14    0.16</time>
   <time name="total">    3.32    4.32</time>
   <energy>
    <i name="e_fr_energy">   -276.54618490 </i>
    <i name="e_wo_entrp">   -276.53675754 </i>
    <i name="e_0_energy">   -276.54304245 </i>
   </energy>
  </scstep>
  <scstep>
   <time name="diag">    0.32    0.42</time>
   <time name="diis">    2.11    2.95</time>
   <time name="orth">    0.09    0.10</time>
   <time name="total">    2.83    3.92</time>
   <energy>
    <i name="e_fr_energy">   -276.53949032 </i>
    <i name="e_wo_entrp">   -276.54243402 </i>
    <i name="e_0_energy">   -276.54047155 </i>
   </energy>
  </scstep>
  <scstep>
   <time name="diag">    0.31    0.53</time>
   <time name="diis">    1.93    3.00</time>
   <time name="orth">    0.12    0.15</time>
   <time name="total">    2.68    4.19</time>
   <energy>
    <i name="e_fr_energy">   -276.54698627 </i>
    <i name="e_wo_entrp">   -276.55694068 </i>
    <i name="e_0_energy">   -276.55030441 </i>
   </energy>
  </scstep>
  <scstep>
   <time name="diag">    0.52    0.64</time>
   <time name="diis">    1.77    2.56</time>
   <time name="orth">    0.10    0.18</time>
   <time name="total">    2.73    3.83</time>
   <energy>
    <i name="e_fr_energy">   -276.55113923 </i>
    <i name="e_wo_entrp">   -276.56676444 </i>
    <i name="e_0_energy">   -276.55634764 </i>
   </energy>
  </scstep>
  <scstep>
   <time name="diag">    0.44    0.48</time>
   <time name="diis">    1.61    2.45</time>
   <time name="orth">    0.16    0.23</time>
   <time name="total">    2.55    3.68</time>
   <energy>
    <i name="e_fr_energy">   -276.55522313 </i>
    <i name="e_wo_entrp">   -276.57304935 </i>
    <i name="e_0_energy">   -276.56116520 </i>
   </energy>
  </scstep>
  <scstep>
   <time name="diag">    0.42    0.77</time>
   <time name="diis">    1.75    2.53</time>
   <time name="orth">    0.09    0.14</time>
   <time name="total">    2.62    3.93</time>
   <energy>
    <i name="e_fr_energy">   -276.55768215 </i>
    <i name="e_wo_entrp">   -276.58221563 </i>
    <i name="e_0_energy">   -276.56585997 </i>
   </energy>
  </scstep>
  <scstep>
   <time name="diag">    0.32    0.55</time>
   <time name="diis">    1.42    1.90</time>
   <time name="orth">    0.10    0.11</time>
   <time name="total">    2.20    3.13</time>
   <energy>
    <i name="e_fr_energy">   -276.56109412 </i>
    <i name="e_wo_entrp">   -276.58714404 </i>
    <i name="e_0_energy">   -276.56977743 </i>
   </energy>
  </scstep>
  <scstep>
   <time name="diag">    0.27    0.49</time>
   <time name="diis">    1.31    1.80</time>
   <time name="orth">    0.16    0.25</time>
   <time name="total">    2.04    2.94</time>
   <energy>
    <i name="e_fr_energy">   -276.56313841 </i>
    <i name="e_wo_entrp">   -276.59232571 </i>
    <i name="e_0_energy">   -276.57286751 </i>
   </energy>
  </scstep>
  <scstep>
   <time name="diag">    0.71    1.11</time>
   <time name="diis">    2.00    2.49</time>
   <time name="orth">    0.16    0.31</time>
   <time name="total">    3.53    4.94</time>
   <energy>
    <i name="e_fr_energy">   -276.56759216 </i>
    <i name="e_wo_entrp">   -276.60106667 </i>
    <i name="e_0_energy">   -276.57875033 </i>
   </energy>
  </scstep>
  <scstep>
   <time name="diag">    0.84    1.28</time>
   <time name="diis">    1.39    1.83</time>
   <time name="orth">    0.28    0.45</time>
   <time name="total">    3.03    4.34</time>
   <energy>
    <i name="e_fr_energy">   -276.57042728 </i>
    <i name="e_wo_entrp">   -276.60615087 </i>
    <i name="e_0_energy">   -276.58233514 </i>
   </energy>
  </scstep>
  <scstep>
   <time name="diag">    0.96    1.34</time>
   <time name="diis">    1.28    1.62</time>
   <time name="orth">    0.21    0.27</time>
   <time name="total">    2.70    3.70</time>
   <energy>
    <i name="e_fr_energy">   -276.57219400 </i>
    <i name="e_wo_entrp">   -276.60934077 </i>
    <i name="e_0_energy">   -276.58457625 </i>
   </energy>
  </scstep>
  <scstep>
   <time name="diag">    0.63    0.85</time>
   <time name="diis">    1.15    1.86</time>
   <time name="orth">    0.22    0.35</time>
   <time name="total">    2.36    3.55</time>
   <energy>
    <i name="e_fr_energy">   -276.57343880 </i>
    <i name="e_wo_entrp">   -276.61278419 </i>
    <i name="e_0_energy">   -276.58655393 </i>
   </energy>
  </scstep>
  <scstep>
   <time name="diag">    0.51    0.76</time>
   <time name="diis">    1.33    1.87</time>
   <time name="orth">    0.22    0.30</time>
   <time name="total">    2.61    3.65</time>
   <energy>
    <i name="e_fr_energy">   -276.57559067 </i>
    <i name="e_wo_entrp">   -276.61741593 </i>
    <i name="e_0_energy">   -276.58953242 </i>
   </energy>
  </scstep>
  <scstep>
   <time name="diag">    0.64    1.11</time>
   <time name="diis">    1.47    2.02</time>
   <time name="orth">    0.22    0.32</time>
   <time name="total">    2.85    4.14</time>
   <energy>
    <i name="e_fr_energy">   -276.57791050 </i>
    <i name="e_wo_entrp">   -276.62294745 </i>
    <i name="e_0_energy">   -276.59292282 </i>
   </energy>
  </scstep>
  <scstep>
   <time name="diag">    0.56    0.94</time>
   <time name="diis">    2.20    3.11</time>
   <time name="orth">    0.27    0.32</time>
   <time name="total">    3.48    4.93</time>
   <energy>
    <i name="e_fr_energy">   -276.58059347 </i>
    <i name="e_wo_entrp">   -276.62958058 </i>
    <i name="e_0_energy">   -276.59692251 </i>
   </energy>
  </scstep>
  <scstep>
   <time name="diag">    0.56    0.80</time>
   <time name="diis">    1.22    1.65</time>
   <time name="orth">    0.18    0.26</time>
   <time name="total">    2.42    3.29</time>
   <energy>
    <i name="e_fr_energy">   -276.58037546 </i>
    <i name="e_wo_entrp">   -276.63029922 </i>
    <i name="e_0_energy">   -276.59701672 </i>
   </energy>
  </scstep>
  <scstep>
   <time name="diag">    0.77    0.94</time>
   <time name="diis">    1.26    1.82</time>
   <time name="orth">    0.16    0.17</time>
   <time name="total">    2.80    3.82</time>
   <energy>
    <i name="e_fr_energy">   -276.58052398 </i>
    <i name="e_wo_entrp">   -276.62998762 </i>
    <i name="e_0_energy">   -276.59701186 </i>
   </energy>
  </scstep>
  <scstep>
   <time name="diag">    0.60    0.91</time>
   <time name="diis">    1.18    1.79</time>
   <time name="orth">    0.20    0.33</time>
   <time name="total">    2.32    3.42</time>
   <energy>
    <i name="alphaZ">   1136.56246079 </i>
    <i name="ewald"> -19688.67025682 </i>
    <i name="hartreedc"> -12350.77715388 </i>
    <i name="XCdc">   1356.74186188 </i>
    <i name="pawpsdc">  32636.51734665 </i>
    <i name="pawaedc"> -32941.24856015 </i>
    <i name="eentropy">      0.05041208 </i>
    <i name="bandstr">  -2766.10458470 </i>
    <i name="atom">  32340.34786160 </i>
    <i name="e_fr_energy">   -276.58061256 </i>
    <i name="e_wo_entrp">   -276.63102464 </i>
    <i name="e_0_energy">   -276.59741659 </i>
   </energy>
  </scstep>
  <structure>
   <crystal>
    <varray name="basis" >
     <v>       9.40119100       0.00000000      -0.08412900 </v>
     <v>       0.00000000       5.35946700       0.00000000 </v>
     <v>       0.00000000      -0.07378100      14.95565100 </v>
    </varray>
    <i name="volume">    753.54605297 </i>
    <varray name="rec_basis" >
     <v>       0.10636950       0.00000000       0.00000000 </v>
     <v>       0.00000824       0.18658572       0.00092049 </v>
     <v>       0.00059835       0.00000000       0.06686436 </v>
    </varray>
   </crystal>
   <varray name="positions" >
    <v>       0.16411200       0.48397600       0.17995900 </v>
    <v>       0.16411200       0.51602400       0.68619400 </v>
    <v>       0.66411200       0.98397600       0.17995900 </v>
    <v>       0.66411200       0.01602400       0.67995900 </v>
    <v>       0.17533200       0.47285200       0.97303200 </v>
    <v>       0.17533200       0.52714800       0.47303200 </v>
    <v>       0.67533200       0.97285200       0.96753600 </v>
    <v>       0.67533200       0.02714800       0.47303200 </v>
    <v>       0.33162900       0.02941400       0.82240100 </v>
    <v>       0.33162900       0.97058600       0.32240100 </v>
    <v>       0.83162900       0.52758300       0.82240100 </v>
    <v>       0.83373100       0.47058600       0.32240100 </v>
    <v>       0.33361900       0.00432000       0.51711500 </v>
    <v>       0.33361900       0.00174000       0.01711500 </v>
    <v>       0.83361900       0.50432000       0.51711500 </v>
    <v>       0.83361900       0.49568000       0.01711500 </v>
    <v>       0.30926400       0.26740800       0.92544800 </v>
    <v>       0.30926400       0.73259200       0.42544800 </v>
    <v>       0.81159200       0.76740800       0.92544800 </v>
    <v>       0.80926400       0.23259200       0.42544800 </v>
    <v>       0.99825600       0.36884200       0.24394900 </v>
    <v>       0.00386100       0.63115800       0.74394900 </v>
    <v>       0.50386100       0.86884200       0.24394900 </v>
    <v>       0.50386100       0.13115800       0.74178500 </v>
    <v>       0.02591400       0.39537700       0.58770000 </v>
    <v>       0.03031000       0.60462300       0.07915900 </v>
    <v>       0.52591400       0.90042900       0.57915900 </v>
    <v>       0.53414400       0.10462300       0.07915900 </v>
    <v>       0.17611800       0.21417000       0.08350500 </v>
    <v>       0.17611800       0.78418200       0.58350500 </v>
    <v>       0.67611800       0.71417000       0.08350500 </v>
    <v>       0.67611800       0.28506200       0.58350500 </v>
    <v>       0.18147400       0.20344500       0.73945400 </v>
    <v>       0.17847700       0.79655500       0.23945400 </v>
    <v>       0.68147400       0.70344500       0.73945400 </v>
    <v>       0.68147400       0.29655500       0.23945400 </v>
    <v>       0.18900300       0.20186000       0.42366300 </v>
    <v>       0.18900300       0.79814000       0.92366300 </v>
    <v>       0.68900300       0.70186000       0.42366300 </v>
    <v>       0.68035700       0.29814000       0.92366300 </v>
    <v>       0.29347700       0.34686800       0.57827500 </v>
    <v>       0.29347700       0.65313200       0.07827500 </v>
    <v>       0.79347700       0.85549900       0.57032000 </v>
    <v>       0.79347700       0.15313200       0.07827500 </v>
    <v>       0.30310600       0.30561100       0.23902000 </v>
    <v>       0.29812600       0.69438900       0.74801900 </v>
    <v>       0.79441900       0.80561100       0.24801900 </v>
    <v>       0.80310600       0.19438900       0.74801900 </v>
    <v>       0.48845000       0.13464800       0.42295500 </v>
    <v>       0.48656600       0.86479900       0.92295500 </v>
    <v>       0.99071400       0.63464800       0.42295500 </v>
    <v>       0.99071400       0.36535200       0.92295500 </v>
   </varray>
  </structure>
  <varray name="forces" >
   <v>      -0.34186278       0.35546358      -0.87433966 </v>
   <v>      -0.49287246      -0.38526297      -1.75257208 </v>
   <v>      -0.22529155       0.30100725      -0.90211651 </v>
   <v>       0.07876858      -0.04909427      -0.50136197 </v>
   <v>       0.35721300      -0.61145804       1.35228580 </v>
   <v>       0.44700288       0.81890527       1.40048264 </v>
   <v>       0.33465867      -0.97810407       1.74595608 </v>
   <v>       0.29207407       0.75864732       1.21688220 </v>
   <v>      -0.50030576       1.03634671       0.09085430 </v>
   <v>      -0.42950504      -1.10952467       0.06970707 </v>
   <v>      -0.43082351       1.06666975       0.02704395 </v>
   <v>      -0.66732758      -1.10418714       0.03901108 </v>
   <v>       0.18629798      -1.19222645      -1.35817841 </v>
   <v>       0.25323277       1.11445065      -1.30169808 </v>
   <v>       0.33329661      -1.34241377      -1.41653092 </v>
   <v>       0.11413386       1.25512566      -1.14097778 </v>
   <v>      -0.33186468      -1.67903425       0.13925750 </v>
   <v>      -0.36235559       1.68087631       0.25059187 </v>
   <v>      -0.43488114      -1.75327231      -0.16536553 </v>
   <v>      -0.30705071       1.71004891       0.28584263 </v>
   <v>      -0.10059569       0.31782191       0.24615070 </v>
   <v>      -0.63230380      -0.06198132       0.70276104 </v>
   <v>      -0.40746936       0.26107428       0.33649231 </v>
   <v>      -0.43472966      -0.21574612       0.50747203 </v>
   <v>      -0.68854784       0.23563868      -0.64837029 </v>
   <v>      -0.82644202      -0.23289244      -0.37942419 </v>
   <v>      -0.62643954       0.10961469      -0.39323193 </v>
   <v>      -1.04106508      -0.18597452      -0.31407539 </v>
   <v>       0.15953784      -0.39324441      -0.49162178 </v>
   <v>       0.30884103       0.38706881      -0.47265630 </v>
   <v>       0.30522118      -0.40372909      -0.39568111 </v>
   <v>       0.19838307       0.45242895      -0.41565329 </v>
   <v>       0.79121458      -0.07758363       0.92816643 </v>
   <v>       0.78414089      -0.12729992       0.73018792 </v>
   <v>       0.73197473       0.14215437       0.54444958 </v>
   <v>       0.70429324      -0.13502437       0.69873738 </v>
   <v>       0.46687765      -0.27586088      -0.07674655 </v>
   <v>       0.46397426       0.20327588       0.05150397 </v>
   <v>       0.45213090      -0.31536804      -0.06928578 </v>
   <v>       0.70669987       0.40285329      -0.08813404 </v>
   <v>       0.23680082       0.05724969      -0.43325679 </v>
   <v>       0.23823496      -0.08133609      -0.40976655 </v>
   <v>       0.27175090       0.04107677      -0.03509903 </v>
   <v>       0.36237699       0.00958131      -0.41223903 </v>
   <v>       0.14186836      -0.31271862       0.82809622 </v>
   <v>       0.50633250       0.45153197       0.79049803 </v>
   <v>       0.34745971      -0.26464628       0.52137049 </v>
   <v>      -0.17126061       0.19435647       0.34217583 </v>
   <v>      -0.27120622      -0.43100805       0.14756898 </v>
   <v>      -0.22475266       0.49576245       0.04906419 </v>
   <v>      -0.29105993      -0.52524754       0.25854039 </v>
   <v>      -0.33477871       0.38520831       0.14723239 </v>
  </varray>
  <varray name="stress" >
   <v>    -199.51238249      -2.01368415       1.57769813 </v>
   <v>      -2.01368283    -204.84839083       2.86287681 </v>
   <v>       1.57769725       2.86287641    -234.77889510 </v>
  </varray>
  <energy>
   <i name="e_fr_energy">   -276.58061256 </i>
   <i name="e_wo_entrp">   -276.59741659 </i>
   <i name="e_0_energy">      0.05041208 </i>
  </energy>
  <time name="totalsc">  244.14  348.35</time>
  <eigenvalues>
   <array>
    <dimension dim="1">band</dimension>
    <dimension dim="2">kpoint</dimension>
    <dimension dim="3">spin</dimension>
    <field>eigene</field>
    <field>occ</field>
    <set>
     <set comment="spin 1">
      <set comment="kpoint 1">
       <r>  -23.8609    1.0000 </r>
       <r>  -23.8385    1.0000 </r>
       <r>  -23.7468    1.0000 </r>
       <r>  -23.7300    1.0000 </r>
       <r>  -23.6806    1.0000 </r>
       <r>  -23.6673    1.0000 </r>
       <r>  -23.5985    1.0000 </r>
       <r>  -23.5694    1.0000 </r>
       <r>  -23.5156    1.0000 </r>
       <r>  -23.4936    1.0000 </r>
       <r>  -23.4757    1.0000 </r>
       <r>  -23.4600    1.0000 </r>
       <r>  -23.3124    1.0000 </r>
       <r>  -23.3071    1.0000 </r>
       <r>  -23.2535    1.0000 </r>
       <r>  -23.2217    1.0000 </r>
       <r>  -23.1954    1.0000 </r>
       <r>  -23.1793    1.0000 </r>
       <r>  -23.1232    1.0000 </r>
       <r>  -23.1108    1.0000 </r>
       <r>  -23.0706    1.0000 </r>
       <r>  -23.0567    1.0000 </r>
       <r>  -23.0287    1.0000 </r>
       <r>  -23.0161    1.0000 </r>
       <r>  -23.0068    1.0000 </r>
       <r>  -22.9919    1.0000 </r>
       <r>  -22.9408    1.0000 </r>
       <r>  -22.8940    1.0000 </r>
       <r>  -22.8772    1.0000 </r>
       <r>  -22.8510    1.0000 </r>
       <r>  -22.8431    1.0000 </r>
       <r>  -22.7922    1.0000 </r>
       <r>  -18.7786    1.0000 </r>
       <r>  -18.7655    1.0000 </r>
       <r>  -18.6886    1.0000 </r>
       <r>  -18.6820    1.0000 </r>
       <r>   -6.9811    1.0000 </r>
       <r>   -6.9395    1.0000 </r>
       <r>   -6.8601    1.0000 </r>
       <r>   -6.8030    1.0000 </r>
       <r>   -6.7494    1.0000 </r>
       <r>   -6.7319    1.0000 </r>
       <r>   -6.6701    1.0000 </r>
       <r>   -6.6452    1.0000 </r>
       <r>   -6.4854    1.0000 </r>
       <r>   -6.4229    1.0000 </r>
       <r>   -6.3626    1.0000 </r>
       <r>   -6.2888    1.0000 </r>
       <r>   -6.2242    1.0000 </r>
       <r>   -6.1843    1.0000 </r>
       <r>   -6.1566    1.0000 </r>
       <r>   -6.1515    1.0000 </r>
       <r>   -6.1041    1.0000 </r>
       <r>   -6.0978    1.0000 </r>
       <r>   -6.0556    1.0000 </r>
       <r>   -6.0507    1.0000 </r>
       <r>   -6.0362    1.0000 </r>
       <r>   -6.0211    1.0000 </r>
       <r>   -5.9826    1.0000 </r>
       <r>   -5.9463    1.0000 </r>
       <r>   -5.9307    1.0000 </r>
       <r>   -5.9113    1.0000 </r>
       <r>   -5.8761    1.0000 </r>
       <r>   -5.8625    1.0000 </r>
       <r>   -5.8259    1.0000 </r>
       <r>   -5.8077    1.0000 </r>
       <r>   -5.7944    1.0000 </r>
       <r>   -5.7900    1.0000 </r>
       <r>   -5.7710    1.0000 </r>
       <r>   -5.7087    1.0000 </r>
       <r>   -5.6958    1.0000 </r>
       <r>   -5.6761    1.0000 </r>
       <r>   -5.6490    1.0000 </r>
       <r>   -5.6199    1.0000 </r>
       <r>   -5.5934    1.0000 </r>
       <r>   -5.5772    1.0000 </r>
       <r>   -5.5334    1.0000 </r>
       <r>   -5.4799    1.0000 </r>
       <r>   -5.4747    1.0000 </r>
       <r>   -5.4336    1.0000 </r>
       <r>   -5.3901    1.0000 </r>
       <r>   -5.3771    1.0000 </r>
       <r>   -5.2306    1.0000 </r>
       <r>   -5.2153    1.0000 </r>
       <r>   -5.2009    1.0000 </r>
       <r>   -5.1571    1.0000 </r>
       <r>   -5.1100    1.0000 </r>
       <r>   -5.0970    1.0000 </r>
       <r>   -5.0282    1.0000 </r>
       <r>   -5.0267    1.0000 </r>
       <r>   -4.9800    1.0000 </r>
       <r>   -4.9546    1.0000 </r>
       <r>   -4.8710    1.0000 </r>
       <r>   -4.8358    1.0000 </r>
       <r>   -4.8096    1.0000 </r>
       <r>   -4.7939    1.0000 </r>
       <r>   -4.7529    1.0000 </r>
       <r>   -4.7282    1.0000 </r>
       <r>   -4.6734    1.0000 </r>
       <r>   -4.6481    1.0000 </r>
       <r>   -4.6245    1.0000 </r>
       <r>   -4.6166    1.0000 </r>
       <r>   -4.5841    1.0000 </r>
       <r>   -4.5690    1.0000 </r>
       <r>   -4.5380    1.0000 </r>
       <r>   -4.5082    1.0000 </r>
       <r>   -4.4814    1.0000 </r>
       <r>   -4.4691    1.0000 </r>
       <r>   -4.4587    1.0000 </r>
       <r>   -4.4071    1.0000 </r>
       <r>   -4.3841    1.0000 </r>
       <r>   -4.3338    1.0000 </r>
       <r>   -4.3269    1.0000 </r>
       <r>   -4.2813    1.0000 </r>
       <r>   -4.2364    1.0000 </r>
       <r>   -4.1888    1.0000 </r>
       <r>   -4.1474    1.0000 </r>
       <r>   -4.1057    1.0000 </r>
       <r>   -4.1011    1.0000 </r>
       <r>   -4.0830    1.0000 </r>
       <r>   -4.0484    1.0000 </r>
       <r>   -4.0347    1.0000 </r>
       <r>   -4.0031    1.0000 </r>
       <r>   -3.9442    1.0000 </r>
       <r>   -3.9123    1.0000 </r>
       <r>   -3.8908    1.0000 </r>
       <r>   -3.8898    1.0000 </r>
       <r>   -3.8600    1.0000 </r>
       <r>   -3.8409    1.0000 </r>
       <r>   -3.7928    1.0000 </r>
       <r>   -3.7679    1.0000 </r>
       <r>   -3.7557    1.0000 </r>
       <r>   -3.7327    1.0000 </r>
       <r>   -3.7009    1.0000 </r>
       <r>   -3.6682    1.0000 </r>
       <r>   -3.6539    1.0000 </r>
       <r>   -3.6105    1.0000 </r>
       <r>   -3.5933    1.0000 </r>
       <r>   -3.5777    1.0000 </r>
       <r>   -3.5635    1.0000 </r>
       <r>   -3.5205    1.0000 </r>
       <r>   -3.4977    1.0000 </r>
       <r>   -3.4688    1.0000 </r>
       <r>   -3.4281    1.0000 </r>
       <r>   -0.8252    1.0000 </r>
       <r>   -0.8093    1.0000 </r>
       <r>   -0.7889    1.0000 </r>
       <r>   -0.7466    1.0000 </r>
       <r>   -0.7238    1.0000 </r>
       <r>   -0.7221    1.0000 </r>
       <r>   -0.6770    1.0002 </r>
       <r>   -0.6668    1.0002 </r>
       <r>   -0.6273    1.0006 </r>
       <r>   -0.6135    1.0008 </r>
       <r>   -0.6060    1.0009 </r>
       <r>   -0.6011    1.0010 </r>
       <r>   -0.5899    1.0013 </r>
       <r>   -0.5708    1.0020 </r>
       <r>   -0.5532    1.0029 </r>
       <r>   -0.5282    1.0046 </r>
       <r>   -0.5096    1.0064 </r>
       <r>   -0.4672    1.0124 </r>
       <r>   -0.4464    1.0164 </r>
       <r>   -0.4417    1.0174 </r>
       <r>   -0.4151    1.0233 </r>
       <r>   -0.4136    1.0237 </r>
       <r>   -0.4076    1.0251 </r>
       <r>   -0.3970    1.0275 </r>
       <r>   -0.3948    1.0280 </r>
       <r>   -0.3777    1.0315 </r>
       <r>   -0.3648    1.0336 </r>
       <r>   -0.3587    1.0344 </r>
       <r>   -0.3414    1.0355 </r>
       <r>   -0.3398    1.0355 </r>
       <r>   -0.3310    1.0350 </r>
       <r>   -0.3112    1.0313 </r>
       <r>   -0.2944    1.0241 </r>
       <r>   -0.2689    1.0046 </r>
       <r>   -0.2449    0.9741 </r>
       <r>   -0.2305    0.9494 </r>
       <r>   -0.2210    0.9304 </r>
       <r>   -0.2001    0.8806 </r>
       <r>   -0.1866    0.8426 </r>
       <r>   -0.1770    0.8128 </r>
       <r>   -0.1697    0.7889 </r>
       <r>   -0.1572    0.7450 </r>
       <r>   -0.1385    0.6746 </r>
       <r>   -0.1135    0.5726 </r>
       <r>   -0.0933    0.4876 </r>
       <r>   -0.0745    0.4088 </r>
       <r>   -0.0523    0.3189 </r>
       <r>   -0.0137    0.1815 </r>
       <r>    0.0042    0.1288 </r>
       <r>    0.0451    0.0379 </r>
       <r>    0.0653    0.0081 </r>
       <r>    0.0764   -0.0045 </r>
       <r>    0.1178   -0.0310 </r>
       <r>    0.1365   -0.0348 </r>
       <r>    0.1655   -0.0345 </r>
       <r>    0.1834   -0.0318 </r>
       <r>    0.2239   -0.0230 </r>
       <r>    0.2363   -0.0202 </r>
       <r>    0.2578   -0.0156 </r>
       <r>    0.3258   -0.0055 </r>
       <r>    0.4080   -0.0011 </r>
       <r>    0.4331   -0.0006 </r>
       <r>    0.5012   -0.0001 </r>
       <r>    0.5314   -0.0000 </r>
       <r>    0.5637   -0.0000 </r>
       <r>    0.7182   -0.0000 </r>
       <r>    0.7445   -0.0000 </r>
       <r>    0.7651   -0.0000 </r>
       <r>    0.7899   -0.0000 </r>
       <r>    0.8219   -0.0000 </r>
       <r>    0.8831   -0.0000 </r>
       <r>    0.9832   -0.0000 </r>
       <r>    1.0104   -0.0000 </r>
       <r>    1.0225   -0.0000 </r>
       <r>    1.0781   -0.0000 </r>
       <r>    1.1097   -0.0000 </r>
       <r>    1.1354   -0.0000 </r>
       <r>    1.2144   -0.0000 </r>
       <r>    1.2916   -0.0000 </r>
       <r>    1.2994   -0.0000 </r>
       <r>    3.3397   -0.0000 </r>
       <r>    4.1722   -0.0000 </r>
       <r>    4.6328   -0.0000 </r>
       <r>    6.1501    0.0000 </r>
      </set>
     </set>
    </set>
   </array>
  </eigenvalues>
  <separator name="orbital magnetization" >
   <v name="MAGDIPOLOUT">      0.00000000      0.00000000      0.00000000</v>
  </separator>
  <dos>
   <i name="efermi">     -0.09623393 </i>
   <total>
    <array>
     <dimension dim="1">gridpoints</dimension>
     <dimension dim="2">spin</dimension>
     <field>energy</field>
     <field>total</field>
     <field>integrated</field>
     <set>
      <set comment="spin 1">
       <r>   -25.8609     0.0000     0.0000 </r>
       <r>   -25.7475     0.0000     0.0000 </r>
       <r>   -25.6341     0.0000     0.0000 </r>
       <r>   -25.5208    -0.0000    -0.0000 </r>
       <r>   -25.4074    -0.0000    -0.0000 </r>
       <r>   -25.2940    -0.0000    -0.0000 </r>
       <r>   -25.1807    -0.0000    -0.0000 </r>
       <r>   -25.0673    -0.0000    -0.0000 </r>
       <r>   -24.9539    -0.0000    -0.0000 </r>
       <r>   -24.8405    -0.0000    -0.0000 </r>
       <r>   -24.7272    -0.0000    -0.0000 </r>
       <r>   -24.6138    -0.0000    -0.0000 </r>
       <r>   -24.5004    -0.0008    -0.0001 </r>
       <r>   -24.3871    -0.0177    -0.0021 </r>
       <r>   -24.2737    -0.1940    -0.0241 </r>
       <r>   -24.1603    -0.9365    -0.1303 </r>
       <r>   -24.0470    -1.0983    -0.2548 </r>
       <r>   -23.9336     5.7104     0.3926 </r>
       <r>   -23.8202    23.4257     3.0484 </r>
       <r>   -23.7068    42.3383     7.8483 </r>
       <r>   -23.5935    52.4599    13.7956 </r>
       <r>   -23.4801    51.4317    19.6265 </r>
       <r>   -23.3667    42.8992    24.4899 </r>
       <r>   -23.2534    45.7410    29.6756 </r>
       <r>   -23.1400    64.2983    36.9651 </r>
       <r>   -23.0266    80.2531    46.0634 </r>
       <r>   -22.9133    79.0477    55.0250 </r>
       <r>   -22.7999    56.7824    61.4625 </r>
       <r>   -22.6865    23.6801    64.1471 </r>
       <r>   -22.5731     1.9052    64.3631 </r>
       <r>   -22.4598    -2.2569    64.1072 </r>
       <r>   -22.3464    -0.8226    64.0139 </r>
       <r>   -22.2330    -0.1150    64.0009 </r>
       <r>   -22.1197    -0.0077    64.0000 </r>
       <r>   -22.0063    -0.0003    64.0000 </r>
       <r>   -21.8929    -0.0000    64.0000 </r>
       <r>   -21.7796    -0.0000    64.0000 </r>
       <r>   -21.6662    -0.0000    64.0000 </r>
       <r>   -21.5528    -0.0000    64.0000 </r>
       <r>   -21.4394     0.0000    64.0000 </r>
       <r>   -21.3261     0.0000    64.0000 </r>
       <r>   -21.2127     0.0000    64.0000 </r>
       <r>   -21.0993     0.0000    64.0000 </r>
       <r>   -20.9860     0.0000    64.0000 </r>
       <r>   -20.8726     0.0000    64.0000 </r>
       <r>   -20.7592     0.0000    64.0000 </r>
       <r>   -20.6459     0.0000    64.0000 </r>
       <r>   -20.5325     0.0000    64.0000 </r>
       <r>   -20.4191    -0.0000    64.0000 </r>
       <r>   -20.3057    -0.0000    64.0000 </r>
       <r>   -20.1924    -0.0000    64.0000 </r>
       <r>   -20.0790    -0.0000    64.0000 </r>
       <r>   -19.9656    -0.0000    64.0000 </r>
       <r>   -19.8523    -0.0000    64.0000 </r>
       <r>   -19.7389    -0.0000    64.0000 </r>
       <r>   -19.6255    -0.0000    64.0000 </r>
       <r>   -19.5122    -0.0000    64.0000 </r>
       <r>   -19.3988    -0.0016    63.9998 </r>
       <r>   -19.2854    -0.0321    63.9962 </r>
       <r>   -19.1721    -0.3042    63.9617 </r>
       <r>   -19.0587    -1.1599    63.8302 </r>
       <r>   -18.9453     0.1098    63.8426 </r>
       <r>   -18.8319    11.5601    65.1532 </r>
       <r>   -18.7186    27.8840    68.3144 </r>
       <r>   -18.6052    25.7492    71.2336 </r>
       <r>   -18.4918     8.6295    72.2119 </r>
       <r>   -18.3785    -0.6348    72.1400 </r>
       <r>   -18.2651    -0.9983    72.0268 </r>
       <r>   -18.1517    -0.2157    72.0023 </r>
       <r>   -18.0384    -0.0197    72.0001 </r>
       <r>   -17.9250    -0.0009    72.0000 </r>
       <r>   -17.8116    -0.0000    72.0000 </r>
       <r>   -17.6982    -0.0000    72.0000 </r>
       <r>   -17.5849    -0.0000    72.0000 </r>
       <r>   -17.4715    -0.0000    72.0000 </r>
       <r>   -17.3581    -0.0000    72.0000 </r>
       <r>   -17.2448     0.0000    72.0000 </r>
       <r>   -17.1314     0.0000    72.0000 </r>
       <r>   -17.0180     0.0000    72.0000 </r>
       <r>   -16.9047     0.0000    72.0000 </r>
       <r>   -16.7913     0.0000    72.0000 </r>
       <r>   -16.6779     0.0000    72.0000 </r>
       <r>   -16.5645     0.0000    72.0000 </r>
       <r>   -16.4512     0.0000    72.0000 </r>
       <r>   -16.3378     0.0000    72.0000 </r>
       <r>   -16.2244     0.0000    72.0000 </r>
       <r>   -16.1111     0.0000    72.0000 </r>
       <r>   -15.9977     0.0000    72.0000 </r>
       <r>   -15.8843     0.0000    72.0000 </r>
       <r>   -15.7710     0.0000    72.0000 </r>
       <r>   -15.6576     0.0000    72.0000 </r>
       <r>   -15.5442     0.0000    72.0000 </r>
       <r>   -15.4308     0.0000    72.0000 </r>
       <r>   -15.3175     0.0000    72.0000 </r>
       <r>   -15.2041     0.0000    72.0000 </r>
       <r>   -15.0907     0.0000    72.0000 </r>
       <r>   -14.9774     0.0000    72.0000 </r>
       <r>   -14.8640     0.0000    72.0000 </r>
       <r>   -14.7506     0.0000    72.0000 </r>
       <r>   -14.6373     0.0000    72.0000 </r>
       <r>   -14.5239     0.0000    72.0000 </r>
       <r>   -14.4105     0.0000    72.0000 </r>
       <r>   -14.2971     0.0000    72.0000 </r>
       <r>   -14.1838     0.0000    72.0000 </r>
       <r>   -14.0704     0.0000    72.0000 </r>
       <r>   -13.9570     0.0000    72.0000 </r>
       <r>   -13.8437     0.0000    72.0000 </r>
       <r>   -13.7303     0.0000    72.0000 </r>
       <r>   -13.6169     0.0000    72.0000 </r>
       <r>   -13.5036     0.0000    72.0000 </r>
       <r>   -13.3902     0.0000    72.0000 </r>
       <r>   -13.2768     0.0000    72.0000 </r>
       <r>   -13.1634     0.0000    72.0000 </r>
       <r>   -13.0501     0.0000    72.0000 </r>
       <r>   -12.9367     0.0000    72.0000 </r>
       <r>   -12.8233     0.0000    72.0000 </r>
       <r>   -12.7100     0.0000    72.0000 </r>
       <r>   -12.5966     0.0000    72.0000 </r>
       <r>   -12.4832     0.0000    72.0000 </r>
       <r>   -12.3699     0.0000    72.0000 </r>
       <r>   -12.2565     0.0000    72.0000 </r>
       <r>   -12.1431     0.0000    72.0000 </r>
       <r>   -12.0297     0.0000    72.0000 </r>
       <r>   -11.9164     0.0000    72.0000 </r>
       <r>   -11.8030     0.0000    72.0000 </r>
       <r>   -11.6896     0.0000    72.0000 </r>
       <r>   -11.5763     0.0000    72.0000 </r>
       <r>   -11.4629     0.0000    72.0000 </r>
       <r>   -11.3495     0.0000    72.0000 </r>
       <r>   -11.2362     0.0000    72.0000 </r>
       <r>   -11.1228     0.0000    72.0000 </r>
       <r>   -11.0094     0.0000    72.0000 </r>
       <r>   -10.8960     0.0000    72.0000 </r>
       <r>   -10.7827     0.0000    72.0000 </r>
       <r>   -10.6693     0.0000    72.0000 </r>
       <r>   -10.5559     0.0000    72.0000 </r>
       <r>   -10.4426     0.0000    72.0000 </r>
       <r>   -10.3292     0.0000    72.0000 </r>
       <r>   -10.2158     0.0000    72.0000 </r>
       <r>   -10.1025     0.0000    72.0000 </r>
       <r>    -9.9891     0.0000    72.0000 </r>
       <r>    -9.8757     0.0000    72.0000 </r>
       <r>    -9.7623     0.0000    72.0000 </r>
       <r>    -9.6490     0.0000    72.0000 </r>
       <r>    -9.5356     0.0000    72.0000 </r>
       <r>    -9.4222     0.0000    72.0000 </r>
       <r>    -9.3089     0.0000    72.0000 </r>
       <r>    -9.1955     0.0000    72.0000 </r>
       <r>    -9.0821     0.0000    72.0000 </r>
       <r>    -8.9688     0.0000    72.0000 </r>
       <r>    -8.8554     0.0000    72.0000 </r>
       <r>    -8.7420     0.0000    72.0000 </r>
       <r>    -8.6286    -0.0000    72.0000 </r>
       <r>    -8.5153    -0.0000    72.0000 </r>
       <r>    -8.4019    -0.0000    72.0000 </r>
       <r>    -8.2885    -0.0000    72.0000 </r>
       <r>    -8.1752    -0.0000    72.0000 </r>
       <r>    -8.0618    -0.0000    72.0000 </r>
       <r>    -7.9484    -0.0000    72.0000 </r>
       <r>    -7.8351    -0.0000    72.0000 </r>
       <r>    -7.7217    -0.0000    72.0000 </r>
       <r>    -7.6083    -0.0010    71.9999 </r>
       <r>    -7.4949    -0.0201    71.9976 </r>
       <r>    -7.3816    -0.2030    71.9746 </r>
       <r>    -7.2682    -0.8752    71.8754 </r>
       <r>    -7.1548    -0.6140    71.8058 </r>
       <r>    -7.0415     6.2611    72.5156 </r>
       <r>    -6.9281    21.1838    74.9172 </r>
       <r>    -6.8147    35.7059    78.9652 </r>
       <r>    -6.7014    40.9572    83.6085 </r>
       <r>    -6.5880    32.1465    87.2529 </r>
       <r>    -6.4746    22.2592    89.7765 </r>
       <r>    -6.3612    24.3728    92.5396 </r>
       <r>    -6.2479    37.2396    96.7615 </r>
       <r>    -6.1345    61.3362   103.7152 </r>
       <r>    -6.0211    82.3640   113.0528 </r>
       <r>    -5.9078    88.2092   123.0530 </r>
       <r>    -5.7944    87.7805   133.0047 </r>
       <r>    -5.6810    83.2343   142.4410 </r>
       <r>    -5.5677    73.3509   150.7568 </r>
       <r>    -5.4543    60.2679   157.5893 </r>
       <r>    -5.3409    45.4332   162.7401 </r>
       <r>    -5.2275    41.1716   167.4077 </r>
       <r>    -5.1142    50.7408   173.1602 </r>
       <r>    -5.0008    54.6320   179.3538 </r>
       <r>    -4.8874    51.4218   185.1835 </r>
       <r>    -4.7741    55.5893   191.4857 </r>
       <r>    -4.6607    67.9384   199.1879 </r>
       <r>    -4.5473    79.2255   208.1697 </r>
       <r>    -4.4340    78.0010   217.0126 </r>
       <r>    -4.3206    64.4669   224.3212 </r>
       <r>    -4.2072    55.5465   230.6185 </r>
       <r>    -4.0938    61.1965   237.5564 </r>
       <r>    -3.9805    69.7759   245.4669 </r>
       <r>    -3.8671    74.5580   253.9195 </r>
       <r>    -3.7537    78.7546   262.8479 </r>
       <r>    -3.6404    81.2917   272.0640 </r>
       <r>    -3.5270    75.6234   280.6374 </r>
       <r>    -3.4136    50.5657   286.3700 </r>
       <r>    -3.3003    17.2566   288.3264 </r>
       <r>    -3.1869    -0.2145   288.3021 </r>
       <r>    -3.0735    -2.0123   288.0740 </r>
       <r>    -2.9601    -0.5781   288.0084 </r>
       <r>    -2.8468    -0.0701   288.0005 </r>
       <r>    -2.7334    -0.0042   288.0000 </r>
       <r>    -2.6200    -0.0001   288.0000 </r>
       <r>    -2.5067    -0.0000   288.0000 </r>
       <r>    -2.3933    -0.0000   288.0000 </r>
       <r>    -2.2799    -0.0000   288.0000 </r>
       <r>    -2.1666    -0.0000   288.0000 </r>
       <r>    -2.0532    -0.0000   288.0000 </r>
       <r>    -1.9398    -0.0000   288.0000 </r>
       <r>    -1.8264    -0.0000   288.0000 </r>
       <r>    -1.7131    -0.0000   288.0000 </r>
       <r>    -1.5997    -0.0000   288.0000 </r>
       <r>    -1.4863    -0.0005   287.9999 </r>
       <r>    -1.3730    -0.0147   287.9983 </r>
       <r>    -1.2596    -0.1978   287.9758 </r>
       <r>    -1.1462    -1.2461   287.8346 </r>
       <r>    -1.0329    -2.7903   287.5182 </r>
       <r>    -0.9195     4.2733   288.0027 </r>
       <r>    -0.8061    33.2546   291.7728 </r>
       <r>    -0.6927    74.1690   300.1813 </r>
       <r>    -0.5794   103.6470   311.9318 </r>
       <r>    -0.4660   124.4470   326.0403 </r>
       <r>    -0.3526   145.1906   342.5006 </r>
       <r>    -0.2393   145.5815   359.0052 </r>
       <r>    -0.1259   122.6176   372.9063 </r>
       <r>    -0.0125    95.1416   383.6925 </r>
       <r>     0.1008    79.2208   392.6738 </r>
       <r>     0.2142    70.5410   400.6710 </r>
       <r>     0.3276    54.2289   406.8190 </r>
       <r>     0.4410    40.2155   411.3782 </r>
       <r>     0.5543    34.8564   415.3299 </r>
       <r>     0.6677    33.4362   419.1205 </r>
       <r>     0.7811    40.4807   423.7098 </r>
       <r>     0.8944    44.5849   428.7644 </r>
       <r>     1.0078    45.0773   433.8748 </r>
       <r>     1.1212    47.7263   439.2856 </r>
       <r>     1.2345    41.7392   444.0175 </r>
       <r>     1.3479    26.8809   447.0650 </r>
       <r>     1.4613     9.7811   448.1739 </r>
       <r>     1.5747    -0.0062   448.1732 </r>
       <r>     1.6880    -1.1633   448.0413 </r>
       <r>     1.8014    -0.3259   448.0044 </r>
       <r>     1.9148    -0.0366   448.0002 </r>
       <r>     2.0281    -0.0019   448.0000 </r>
       <r>     2.1415    -0.0001   448.0000 </r>
       <r>     2.2549    -0.0000   448.0000 </r>
       <r>     2.3682    -0.0000   448.0000 </r>
       <r>     2.4816    -0.0000   448.0000 </r>
       <r>     2.5950    -0.0000   448.0000 </r>
       <r>     2.7084    -0.0007   447.9999 </r>
       <r>     2.8217    -0.0129   447.9985 </r>
       <r>     2.9351    -0.1172   447.9852 </r>
       <r>     3.0485    -0.3905   447.9409 </r>
       <r>     3.1618     0.3529   447.9809 </r>
       <r>     3.2752     4.4383   448.4841 </r>
       <r>     3.3886     8.0782   449.3999 </r>
       <r>     3.5019     5.1662   449.9856 </r>
       <r>     3.6153     0.6960   450.0645 </r>
       <r>     3.7287    -0.4667   450.0116 </r>
       <r>     3.8421    -0.4487   449.9607 </r>
       <r>     3.9554    -0.2136   449.9365 </r>
       <r>     4.0688     2.6833   450.2407 </r>
       <r>     4.1822     7.3805   451.0774 </r>
       <r>     4.2955     6.5171   451.8163 </r>
       <r>     4.4089     1.6500   452.0034 </r>
       <r>     4.5223     2.0644   452.2374 </r>
       <r>     4.6356     6.9806   453.0288 </r>
       <r>     4.7490     7.0042   453.8229 </r>
       <r>     4.8624     2.1703   454.0689 </r>
       <r>     4.9758    -0.2917   454.0358 </r>
       <r>     5.0891    -0.2648   454.0058 </r>
       <r>     5.2025    -0.0475   454.0004 </r>
       <r>     5.3159    -0.0036   454.0000 </r>
       <r>     5.4292    -0.0002   454.0000 </r>
       <r>     5.5426    -0.0013   453.9998 </r>
       <r>     5.6560    -0.0219   453.9974 </r>
       <r>     5.7693    -0.1668   453.9785 </r>
       <r>     5.8827    -0.4062   453.9324 </r>
       <r>     5.9961     0.9136   454.0360 </r>
       <r>     6.1095     5.5367   454.6637 </r>
       <r>     6.2228     8.0171   455.5726 </r>
       <r>     6.3362     4.0581   456.0326 </r>
       <r>     6.4496     0.2021   456.0555 </r>
       <r>     6.5629    -0.3759   456.0129 </r>
       <r>     6.6763    -0.1029   456.0013 </r>
       <r>     6.7897    -0.0106   456.0001 </r>
       <r>     6.9030    -0.0005   456.0000 </r>
       <r>     7.0164    -0.0000   456.0000 </r>
       <r>     7.1298    -0.0000   456.0000 </r>
       <r>     7.2432    -0.0000   456.0000 </r>
       <r>     7.3565    -0.0000   456.0000 </r>
       <r>     7.4699    -0.0000   456.0000 </r>
       <r>     7.5833     0.0000   456.0000 </r>
       <r>     7.6966     0.0000   456.0000 </r>
       <r>     7.8100     0.0000   456.0000 </r>
       <r>     7.9234     0.0000   456.0000 </r>
       <r>     8.0367     0.0000   456.0000 </r>
       <r>     8.1501     0.0000   456.0000 </r>
      </set>
     </set>
    </array>
   </total>
  </dos>
 </calculation>
 <structure name="finalpos" >
  <crystal>
   <varray name="basis" >
    <v>       9.40119100       0.00000000      -0.08412900 </v>
    <v>       0.00000000       5.35946700       0.00000000 </v>
    <v>       0.00000000      -0.07378100      14.95565100 </v>
   </varray>
   <i name="volume">    753.54605297 </i>
   <varray name="rec_basis" >
    <v>       0.10636950       0.00000000       0.00000000 </v>
    <v>       0.00000824       0.18658572       0.00092049 </v>
    <v>       0.00059835       0.00000000       0.06686436 </v>
   </varray>
  </crystal>
  <varray name="positions" >
   <v>       0.16411200       0.48397600       0.17995900 </v>
   <v>       0.16411200       0.51602400       0.68619400 </v>
   <v>       0.66411200       0.98397600       0.17995900 </v>
   <v>       0.66411200       0.01602400       0.67995900 </v>
   <v>       0.17533200       0.47285200       0.97303200 </v>
   <v>       0.17533200       0.52714800       0.47303200 </v>
   <v>       0.67533200       0.97285200       0.96753600 </v>
   <v>       0.67533200       0.02714800       0.47303200 </v>
   <v>       0.33162900       0.02941400       0.82240100 </v>
   <v>       0.33162900       0.97058600       0.32240100 </v>
   <v>       0.83162900       0.52758300       0.82240100 </v>
   <v>       0.83373100       0.47058600       0.32240100 </v>
   <v>       0.33361900       0.00432000       0.51711500 </v>
   <v>       0.33361900       0.00174000       0.01711500 </v>
   <v>       0.83361900       0.50432000       0.51711500 </v>
   <v>       0.83361900       0.49568000       0.01711500 </v>
   <v>       0.30926400       0.26740800       0.92544800 </v>
   <v>       0.30926400       0.73259200       0.42544800 </v>
   <v>       0.81159200       0.76740800       0.92544800 </v>
   <v>       0.80926400       0.23259200       0.42544800 </v>
   <v>       0.99825600       0.36884200       0.24394900 </v>
   <v>       0.00386100       0.63115800       0.74394900 </v>
   <v>       0.50386100       0.86884200       0.24394900 </v>
   <v>       0.50386100       0.13115800       0.74178500 </v>
   <v>       0.02591400       0.39537700       0.58770000 </v>
   <v>       0.03031000       0.60462300       0.07915900 </v>
   <v>       0.52591400       0.90042900       0.57915900 </v>
   <v>       0.53414400       0.10462300       0.07915900 </v>
   <v>       0.17611800       0.21417000       0.08350500 </v>
   <v>       0.17611800       0.78418200       0.58350500 </v>
   <v>       0.67611800       0.71417000       0.08350500 </v>
   <v>       0.67611800       0.28506200       0.58350500 </v>
   <v>       0.18147400       0.20344500       0.73945400 </v>
   <v>       0.17847700       0.79655500       0.23945400 </v>
   <v>       0.68147400       0.70344500       0.73945400 </v>
   <v>       0.68147400       0.29655500       0.23945400 </v>
   <v>       0.18900300       0.20186000       0.42366300 </v>
   <v>       0.18900300       0.79814000       0.92366300 </v>
   <v>       0.68900300       0.70186000       0.42366300 </v>
   <v>       0.68035700       0.29814000       0.92366300 </v>
   <v>       0.29347700       0.34686800       0.57827500 </v>
   <v>       0.29347700       0.65313200       0.07827500 </v>
   <v>       0.79347700       0.85549900       0.57032000 </v>
   <v>       0.79347700       0.15313200       0.07827500 </v>
   <v>       0.30310600       0.30561100       0.23902000 </v>
   <v>       0.29812600       0.69438900       0.74801900 </v>
   <v>       0.79441900       0.80561100       0.24801900 </v>
   <v>       0.80310600       0.19438900       0.74801900 </v>
   <v>       0.48845000       0.13464800       0.42295500 </v>
   <v>       0.48656600       0.86479900       0.92295500 </v>
   <v>       0.99071400       0.63464800       0.42295500 </v>
   <v>       0.99071400       0.36535200       0.92295500 </v>
  </varray>
 </structure>
</modeling>
