<?xml version="1.0" encoding="ISO-8859-1"?>
<modeling>
 <generator>
  <i name="program" type="string">vasp </i>
  <i name="version" type="string">5.3.5  </i>
  <i name="subversion" type="string">31Mar14 (build Aug 29 2014 19:41:47) complex                          parallel </i>
  <i name="platform" type="string">LinuxIFC </i>
  <i name="date" type="string">2019 04 11 </i>
  <i name="time" type="string">15:35:01 </i>
 </generator>
 <incar>
  <i type="string" name="SYSTEM"> Fe6OF11_var_1</i>
  <i type="int" name="ISTART">     0</i>
  <i type="string" name="PREC">normal</i>
  <i type="string" name="ALGO"> VeryFast</i>
  <i type="int" name="ISPIN">     1</i>
  <i type="int" name="ICHARG">     2</i>
  <i type="int" name="NELM">   300</i>
  <i type="int" name="ISYM">     0</i>
  <i type="logical" name="LWAVE"> F  </i>
  <i type="int" name="NELM">   300</i>
 </incar>
 <kpoints>
  <generation param="Gamma">
   <v type="int" name="divisions">       1        1        1 </v>
   <v name="usershift">      0.00000000       0.00000000       0.00000000 </v>
   <v name="genvec1">      1.00000000       0.00000000       0.00000000 </v>
   <v name="genvec2">      0.00000000       1.00000000       0.00000000 </v>
   <v name="genvec3">      0.00000000       0.00000000       1.00000000 </v>
   <v name="shift">      0.00000000       0.00000000       0.00000000 </v>
  </generation>
  <varray name="kpointlist" >
   <v>       0.00000000       0.00000000       0.00000000 </v>
  </varray>
  <varray name="weights" >
   <v>       1.00000000 </v>
  </varray>
 </kpoints>
 <parameters>
  <separator name="general" >
   <i type="string" name="SYSTEM">Fe6OF11_var_1</i>
   <i type="logical" name="LCOMPAT"> F  </i>
  </separator>
  <separator name="electronic" >
   <i type="string" name="PREC">normal</i>
   <i name="ENMAX">    400.00000000</i>
   <i name="ENAUG">    613.61400000</i>
   <i name="EDIFF">      0.00010000</i>
   <i type="int" name="IALGO">    48</i>
   <i type="int" name="IWAVPR">    10</i>
   <i type="int" name="NBANDS">   160</i>
   <i name="NELECT">    262.00000000</i>
   <i type="int" name="TURBO">     0</i>
   <i type="int" name="IRESTART">     0</i>
   <i type="int" name="NREBOOT">     0</i>
   <i type="int" name="NMIN">     0</i>
   <i name="EREF">      0.00000000</i>
   <separator name="electronic smearing" >
    <i type="int" name="ISMEAR">     1</i>
    <i name="SIGMA">      0.20000000</i>
    <i name="KSPACING">      0.50000000</i>
    <i type="logical" name="KGAMMA"> T  </i>
   </separator>
   <separator name="electronic projectors" >
    <i type="logical" name="LREAL"> F  </i>
    <v name="ROPT">      0.00000000      0.00000000      0.00000000</v>
    <i type="int" name="LMAXPAW">  -100</i>
    <i type="int" name="LMAXMIX">     2</i>
    <i type="logical" name="NLSPLINE"> F  </i>
   </separator>
   <separator name="electronic startup" >
    <i type="int" name="ISTART">     0</i>
    <i type="int" name="ICHARG">     2</i>
    <i type="int" name="INIWAV">     1</i>
   </separator>
   <separator name="electronic spin" >
    <i type="int" name="ISPIN">     1</i>
    <i type="logical" name="LNONCOLLINEAR"> F  </i>
    <v name="MAGMOM">      1.00000000      1.00000000      1.00000000      1.00000000      1.00000000      1.00000000      1.00000000      1.00000000      1.00000000      1.00000000      1.00000000      1.00000000      1.00000000      1.00000000      1.00000000      1.00000000      1.00000000      1.00000000      1.00000000      1.00000000
      1.00000000      1.00000000      1.00000000      1.00000000      1.00000000      1.00000000      1.00000000      1.00000000      1.00000000      1.00000000      1.00000000      1.00000000      1.00000000      1.00000000      1.00000000      1.00000000</v>
    <i name="NUPDOWN">     -1.00000000</i>
    <i type="logical" name="LSORBIT"> F  </i>
    <v name="SAXIS">      0.00000000      0.00000000      1.00000000</v>
    <i type="logical" name="LSPIRAL"> F  </i>
    <v name="QSPIRAL">      0.00000000      0.00000000      0.00000000</v>
    <i type="logical" name="LZEROZ"> F  </i>
   </separator>
   <separator name="electronic exchange-correlation" >
    <i type="logical" name="LASPH"> F  </i>
    <i type="logical" name="LMETAGGA"> F  </i>
   </separator>
   <separator name="electronic convergence" >
    <i type="int" name="NELM">   300</i>
    <i type="int" name="NELMDL">   -12</i>
    <i type="int" name="NELMIN">     2</i>
    <i name="ENINI">    400.00000000</i>
    <separator name="electronic convergence detail" >
     <i type="logical" name="LDIAG"> T  </i>
     <i type="logical" name="LSUBROT"> F  </i>
     <i name="WEIMIN">      0.00000000</i>
     <i name="EBREAK">      0.00000016</i>
     <i name="DEPER">      0.30000000</i>
     <i type="int" name="NRMM">     4</i>
     <i name="TIME">      0.40000000</i>
    </separator>
   </separator>
   <separator name="electronic mixer" >
    <i name="AMIX">      0.40000000</i>
    <i name="BMIX">      1.00000000</i>
    <i name="AMIN">      0.10000000</i>
    <i name="AMIX_MAG">      1.60000000</i>
    <i name="BMIX_MAG">      1.00000000</i>
    <separator name="electronic mixer details" >
     <i type="int" name="IMIX">     4</i>
     <i type="int" name="MAXMIX">   -45</i>
     <i name="WC">    100.00000000</i>
     <i type="int" name="INIMIX">     1</i>
     <i type="int" name="MIXPRE">     1</i>
     <i type="int" name="MREMOVE">     5</i>
    </separator>
   </separator>
   <separator name="electronic dipolcorrection" >
    <i type="logical" name="LDIPOL"> F  </i>
    <i type="logical" name="LMONO"> F  </i>
    <i type="int" name="IDIPOL">     0</i>
    <i name="EPSILON">      1.00000000</i>
    <v name="DIPOL">   -100.00000000   -100.00000000   -100.00000000</v>
    <i name="EFIELD">      0.00000000</i>
   </separator>
  </separator>
  <separator name="grids" >
   <i type="int" name="NGX">    16</i>
   <i type="int" name="NGY">   108</i>
   <i type="int" name="NGZ">    36</i>
   <i type="int" name="NGXF">    32</i>
   <i type="int" name="NGYF">   216</i>
   <i type="int" name="NGZF">    72</i>
   <i type="logical" name="ADDGRID"> F  </i>
  </separator>
  <separator name="ionic" >
   <i type="int" name="NSW">     0</i>
   <i type="int" name="IBRION">    -1</i>
   <i type="int" name="ISIF">     2</i>
   <i name="PSTRESS">      0.00000000</i>
   <i name="EDIFFG">      0.00100000</i>
   <i type="int" name="NFREE">     0</i>
   <i name="POTIM">      0.50000000</i>
   <i name="SMASS">     -3.00000000</i>
   <i name="SCALEE">      1.00000000</i>
  </separator>
  <separator name="ionic md" >
   <i name="TEBEG">      0.00010000</i>
   <i name="TEEND">      0.00010000</i>
   <i type="int" name="NBLOCK">     1</i>
   <i type="int" name="KBLOCK">     1</i>
   <i type="int" name="NPACO">   256</i>
   <i name="APACO">     16.00000000</i>
  </separator>
  <separator name="symmetry" >
   <i type="int" name="ISYM">     0</i>
   <i name="SYMPREC">      0.00001000</i>
  </separator>
  <separator name="dos" >
   <i type="logical" name="LORBIT"> F  </i>
   <v name="RWIGS">     -1.00000000     -1.00000000     -1.00000000</v>
   <i type="int" name="NEDOS">   301</i>
   <i name="EMIN">     10.00000000</i>
   <i name="EMAX">    -10.00000000</i>
   <i name="EFERMI">      0.00000000</i>
  </separator>
  <separator name="writing" >
   <i type="int" name="NWRITE">     2</i>
   <i type="logical" name="LWAVE"> F  </i>
   <i type="logical" name="LCHARG"> T  </i>
   <i type="logical" name="LPARD"> F  </i>
   <i type="logical" name="LVTOT"> F  </i>
   <i type="logical" name="LVHAR"> F  </i>
   <i type="logical" name="LELF"> F  </i>
   <i type="logical" name="LOPTICS"> F  </i>
   <v name="STM">      0.00000000      0.00000000      0.00000000      0.00000000      0.00000000      0.00000000      0.00000000</v>
  </separator>
  <separator name="performance" >
   <i type="int" name="NPAR">     4</i>
   <i type="int" name="NSIM">     4</i>
   <i type="int" name="NBLK">    -1</i>
   <i type="logical" name="LPLANE"> T  </i>
   <i type="logical" name="LSCALAPACK"> T  </i>
   <i type="logical" name="LSCAAWARE"> F  </i>
   <i type="logical" name="LSCALU"> F  </i>
   <i type="logical" name="LASYNC"> F  </i>
   <i type="logical" name="LORBITALREAL"> F  </i>
  </separator>
  <separator name="miscellaneous" >
   <i type="int" name="IDIOT">     3</i>
   <i type="logical" name="LMUSIC"> F  </i>
   <v name="POMASS">     55.84700000     16.00000000     18.99800000</v>
   <v name="DARWINR">      0.00000000      0.00000000      0.00000000</v>
   <v name="DARWINV">      1.00000000      1.00000000      1.00000000</v>
   <i type="logical" name="LCORR"> T  </i>
  </separator>
  <i type="logical" name="GGA_COMPAT"> T  </i>
  <i type="logical" name="LBERRY"> F  </i>
  <i type="int" name="ICORELEVEL">     0</i>
  <i type="logical" name="LDAU"> F  </i>
  <i type="int" name="I_CONSTRAINED_M">     0</i>
  <separator name="electronic exchange-correlation" >
   <i type="string" name="GGA">--</i>
   <i type="int" name="VOSKOWN">     0</i>
   <i type="logical" name="LHFCALC"> F  </i>
   <i type="string" name="PRECFOCK"></i>
   <i type="logical" name="LSYMGRAD"> F  </i>
   <i type="logical" name="LHFONE"> F  </i>
   <i type="logical" name="LRHFCALC"> F  </i>
   <i type="logical" name="LTHOMAS"> F  </i>
   <i type="logical" name="LMODELHF"> F  </i>
   <i name="ENCUT4O">     -1.00000000</i>
   <i type="int" name="EXXOEP">     0</i>
   <i type="int" name="FOURORBIT">     0</i>
   <i name="AEXX">      0.00000000</i>
   <i name="HFALPHA">      0.00000000</i>
   <i name="MCALPHA">      0.00000000</i>
   <i name="ALDAX">      1.00000000</i>
   <i name="AGGAX">      1.00000000</i>
   <i name="ALDAC">      1.00000000</i>
   <i name="AGGAC">      1.00000000</i>
   <i type="int" name="NKREDX">     1</i>
   <i type="int" name="NKREDY">     1</i>
   <i type="int" name="NKREDZ">     1</i>
   <i type="logical" name="SHIFTRED"> F  </i>
   <i type="logical" name="ODDONLY"> F  </i>
   <i type="logical" name="EVENONLY"> F  </i>
   <i type="int" name="LMAXFOCK">     0</i>
   <i type="int" name="NMAXFOCKAE">     0</i>
   <i type="logical" name="LFOCKAEDFT"> F  </i>
   <i name="HFSCREEN">      0.00000000</i>
   <i name="HFSCREENC">      0.00000000</i>
   <i type="int" name="NBANDSGWLOW">     0</i>
  </separator>
  <separator name="vdW DFT" >
   <i type="logical" name="LUSE_VDW"> F  </i>
   <i name="Zab_VDW">     -0.84910000</i>
   <i name="PARAM1">      0.12340000</i>
   <i name="PARAM2">      1.00000000</i>
   <i name="PARAM3">      0.00000000</i>
  </separator>
  <separator name="model GW" >
   <i type="int" name="MODEL_GW">     0</i>
   <i name="MODEL_EPS0">      7.56646665</i>
   <i name="MODEL_ALPHA">      1.00000000</i>
  </separator>
  <separator name="linear response parameters" >
   <i type="logical" name="LEPSILON"> F  </i>
   <i type="logical" name="LRPA"> F  </i>
   <i type="logical" name="LNABLA"> F  </i>
   <i type="logical" name="LVEL"> F  </i>
   <i type="int" name="KINTER">     0</i>
   <i name="CSHIFT">      0.10000000</i>
   <i name="OMEGAMAX">     -1.00000000</i>
   <i name="DEG_THRESHOLD">      0.00200000</i>
  </separator>
  <separator name="orbital magnetization" >
   <i type="logical" name="NUCIND"> F  </i>
   <v name="MAGPOS">      0.00000000      0.00000000      0.00000000</v>
   <i type="logical" name="LNICSALL"> T  </i>
   <i type="logical" name="ORBITALMAG"> F  </i>
   <i type="logical" name="LMAGBLOCH"> F  </i>
   <i type="logical" name="LCHIMAG"> F  </i>
   <i type="logical" name="LGAUGE"> T  </i>
   <i type="int" name="MAGATOM">     0</i>
   <v name="MAGDIPOL">      0.00000000      0.00000000      0.00000000</v>
   <v name="AVECCONST">      0.00000000      0.00000000      0.00000000</v>
  </separator>
  <separator name="response functions" >
   <i type="logical" name="LADDER"> F  </i>
   <i type="logical" name="LFXC"> F  </i>
   <i type="logical" name="LHARTREE"> T  </i>
   <i type="int" name="IBSE">     0</i>
   <i type="logical" name="LTCTE"> F  </i>
   <i type="logical" name="LTETE"> F  </i>
   <i type="logical" name="LTRIPLET"> F  </i>
   <i type="logical" name="LFXCEPS"> F  </i>
   <i type="logical" name="LFXHEG"> F  </i>
   <i type="logical" name="L2ORDER"> F  </i>
   <i type="logical" name="LUSEW"> F  </i>
   <i name="ENCUTGW">     -2.00000000</i>
   <i name="ENCUTGWSOFT">     -2.00000000</i>
   <i name="ENCUTLF">     -1.00000000</i>
   <i type="int" name="LMAXMP2">    -1</i>
   <i name="SCISSOR">      0.00000000</i>
   <i type="int" name="NOMEGA">     0</i>
   <i type="int" name="NOMEGAR">     0</i>
   <i type="int" name="NBANDSGW">    -1</i>
   <i type="int" name="NBANDSO">    -1</i>
   <i type="int" name="NBANDSV">    -1</i>
   <i type="int" name="NELM">   300</i>
   <i type="int" name="DIM">     3</i>
   <i type="int" name="ANTIRES">     0</i>
   <i name="OMEGAMAX">    -30.00000000</i>
   <i name="OMEGAMIN">    -30.00000000</i>
   <i name="OMEGATL">   -200.00000000</i>
   <i type="int" name="OMEGAGRID">     0</i>
   <i name="CSHIFT">     -0.10000000</i>
   <i type="logical" name="SELFENERGY"> F  </i>
   <i type="logical" name="LSPECTRAL"> F  </i>
   <i type="logical" name="ODDONLYGW"> F  </i>
   <i type="logical" name="EVENONLYGW"> F  </i>
   <i type="int" name="NKREDLFX">     1</i>
   <i type="int" name="NKREDLFY">     1</i>
   <i type="int" name="NKREDLFZ">     1</i>
   <i type="int" name="MAXMEM">  1800</i>
   <i type="int" name="TELESCOPE">     0</i>
   <i type="int" name="TAUPAR">     1</i>
  </separator>
  <separator name="External order field" >
   <i name="OFIELD_KAPPA">      0.00000000</i>
   <v name="OFIELD_K">      0.00000000      0.00000000      0.00000000</v>
   <i name="OFIELD_Q6_NEAR">      0.00000000</i>
   <i name="OFIELD_Q6_FAR">      0.00000000</i>
   <i name="OFIELD_A">      0.00000000</i>
  </separator>
 </parameters>
 <atominfo>
  <atoms>      36 </atoms>
  <types>       3 </types>
  <array name="atoms" >
   <dimension dim="1">ion</dimension>
   <field type="string">element</field>
   <field type="int">atomtype</field>
   <set>
    <rc><c>Fe</c><c>   1</c></rc>
    <rc><c>Fe</c><c>   1</c></rc>
    <rc><c>Fe</c><c>   1</c></rc>
    <rc><c>Fe</c><c>   1</c></rc>
    <rc><c>Fe</c><c>   1</c></rc>
    <rc><c>Fe</c><c>   1</c></rc>
    <rc><c>Fe</c><c>   1</c></rc>
    <rc><c>Fe</c><c>   1</c></rc>
    <rc><c>Fe</c><c>   1</c></rc>
    <rc><c>Fe</c><c>   1</c></rc>
    <rc><c>Fe</c><c>   1</c></rc>
    <rc><c>Fe</c><c>   1</c></rc>
    <rc><c>O </c><c>   2</c></rc>
    <rc><c>O </c><c>   2</c></rc>
    <rc><c>F </c><c>   3</c></rc>
    <rc><c>F </c><c>   3</c></rc>
    <rc><c>F </c><c>   3</c></rc>
    <rc><c>F </c><c>   3</c></rc>
    <rc><c>F </c><c>   3</c></rc>
    <rc><c>F </c><c>   3</c></rc>
    <rc><c>F </c><c>   3</c></rc>
    <rc><c>F </c><c>   3</c></rc>
    <rc><c>F </c><c>   3</c></rc>
    <rc><c>F </c><c>   3</c></rc>
    <rc><c>F </c><c>   3</c></rc>
    <rc><c>F </c><c>   3</c></rc>
    <rc><c>F </c><c>   3</c></rc>
    <rc><c>F </c><c>   3</c></rc>
    <rc><c>F </c><c>   3</c></rc>
    <rc><c>F </c><c>   3</c></rc>
    <rc><c>F </c><c>   3</c></rc>
    <rc><c>F </c><c>   3</c></rc>
    <rc><c>F </c><c>   3</c></rc>
    <rc><c>F </c><c>   3</c></rc>
    <rc><c>F </c><c>   3</c></rc>
    <rc><c>F </c><c>   3</c></rc>
   </set>
  </array>
  <array name="atomtypes" >
   <dimension dim="1">type</dimension>
   <field type="int">atomspertype</field>
   <field type="string">element</field>
   <field>mass</field>
   <field>valence</field>
   <field type="string">pseudopotential</field>
   <set>
    <rc><c>  12</c><c>Fe</c><c>     55.84700000</c><c>      8.00000000</c><c>  PAW_PBE Fe 06Sep2000                  </c></rc>
    <rc><c>   2</c><c>O </c><c>     16.00000000</c><c>      6.00000000</c><c>  PAW_PBE O 08Apr2002                   </c></rc>
    <rc><c>  22</c><c>F </c><c>     18.99800000</c><c>      7.00000000</c><c>  PAW_PBE F 08Apr2002                   </c></rc>
   </set>
  </array>
 </atominfo>
 <structure name="initialpos" >
  <crystal>
   <varray name="basis" >
    <v>       3.25262800       0.00000000       0.00000000 </v>
    <v>       0.00000000      20.54938400       0.00000000 </v>
    <v>      -0.03131200       0.00000000       6.79221100 </v>
   </varray>
   <i name="volume">    453.98799923 </i>
   <varray name="rec_basis" >
    <v>       0.30744370       0.00000000       0.00141731 </v>
    <v>       0.00000000       0.04866326       0.00000000 </v>
    <v>       0.00000000       0.00000000       0.14722746 </v>
   </varray>
  </crystal>
  <varray name="positions" >
   <v>       0.00000000       0.16671900       0.49328500 </v>
   <v>       0.00000000       0.83328100       0.50139100 </v>
   <v>       0.00000000       0.66671900       0.00139100 </v>
   <v>       0.00000000       0.33328100       0.00139100 </v>
   <v>       0.50000000       0.16602100       0.00000400 </v>
   <v>       0.50000000       0.84350700       0.00000400 </v>
   <v>       0.50000000       0.66602100       0.50000400 </v>
   <v>       0.50000000       0.33397900       0.50000400 </v>
   <v>       0.00000000       0.00000000       0.01216200 </v>
   <v>       0.00000000       0.50000000       0.51216200 </v>
   <v>       0.50000000       0.00000000       0.47240000 </v>
   <v>       0.50000000       0.50000000       0.97240000 </v>
   <v>       0.00000000       0.00000000       0.31436200 </v>
   <v>       0.99815200       0.50000000       0.81436200 </v>
   <v>       0.00000000       0.16816900       0.20329900 </v>
   <v>       0.00000000       0.83183100       0.20329900 </v>
   <v>       0.00000000       0.66816900       0.70329900 </v>
   <v>       0.00000000       0.33183100       0.70329900 </v>
   <v>       0.00000000       0.16838200       0.79934600 </v>
   <v>       0.00475400       0.83161800       0.79934600 </v>
   <v>       0.00000000       0.66838200       0.30415900 </v>
   <v>       0.00000000       0.33161800       0.29934600 </v>
   <v>       0.50000000       0.06837200       0.99633700 </v>
   <v>       0.50000000       0.93162800       0.99633700 </v>
   <v>       0.50000000       0.56837200       0.49633700 </v>
   <v>       0.50000000       0.43162800       0.49633700 </v>
   <v>       0.50778100       0.09818400       0.50567900 </v>
   <v>       0.50000000       0.90181600       0.50567900 </v>
   <v>       0.50365300       0.59818400       0.00567900 </v>
   <v>       0.50000000       0.40181600       0.00567900 </v>
   <v>       0.50000000       0.23406000       0.50152500 </v>
   <v>       0.50000000       0.76594000       0.50152500 </v>
   <v>       0.50000000       0.73406000       0.00512300 </v>
   <v>       0.50000000       0.26472000       0.00152500 </v>
   <v>       0.00000000       0.00013500       0.69474100 </v>
   <v>       0.00000000       0.50000000       0.19474100 </v>
  </varray>
 </structure>
 <calculation>
  <scstep>
   <time name="diag">    0.12    0.19</time>
   <time name="diis">    0.35    0.47</time>
   <time name="orth">    0.09    0.12</time>
   <time name="total">    0.83    1.15</time>
   <energy>
    <i name="alphaZ">    943.57652748 </i>
    <i name="ewald"> -15985.76958233 </i>
    <i name="hartreedc">  -6697.49709298 </i>
    <i name="XCdc">    902.28970948 </i>
    <i name="pawpsdc">  19213.82102697 </i>
    <i name="pawaedc"> -19422.08171028 </i>
    <i name="eentropy">      0.06609082 </i>
    <i name="bandstr">   1822.02293671 </i>
    <i name="atom">  22504.09828397 </i>
    <i name="e_fr_energy">   3280.52618984 </i>
    <i name="e_wo_entrp">   3280.46009902 </i>
    <i name="e_0_energy">   3280.50415956 </i>
   </energy>
  </scstep>
  <scstep>
   <time name="diag">    0.63    0.99</time>
   <time name="diis">    0.35    0.44</time>
   <time name="orth">    0.02    0.02</time>
   <time name="total">    1.02    1.46</time>
   <energy>
    <i name="e_fr_energy">   1040.40008807 </i>
    <i name="e_wo_entrp">   1040.33958184 </i>
    <i name="e_0_energy">   1040.37991932 </i>
   </energy>
  </scstep>
  <scstep>
   <time name="diag">    0.36    0.51</time>
   <time name="diis">    0.34    0.53</time>
   <time name="orth">    0.24    0.34</time>
   <time name="total">    0.94    1.38</time>
   <energy>
    <i name="e_fr_energy">    351.67672024 </i>
    <i name="e_wo_entrp">    351.61532601 </i>
    <i name="e_0_energy">    351.65625550 </i>
   </energy>
  </scstep>
  <scstep>
   <time name="diag">    0.24    0.36</time>
   <time name="diis">    0.33    0.53</time>
   <time name="orth">    0.54    0.83</time>
   <time name="total">    1.11    1.72</time>
   <energy>
    <i name="e_fr_energy">     65.86461909 </i>
    <i name="e_wo_entrp">     65.80777297 </i>
    <i name="e_0_energy">     65.84567039 </i>
   </energy>
  </scstep>
  <scstep>
   <time name="diag">    0.27    0.34</time>
   <time name="diis">    0.35    0.52</time>
   <time name="orth">    0.04    0.04</time>
   <time name="total">    0.66    0.90</time>
   <energy>
    <i name="e_fr_energy">    -90.09449649 </i>
    <i name="e_wo_entrp">    -90.22965012 </i>
    <i name="e_0_energy">    -90.13954770 </i>
   </energy>
  </scstep>
  <scstep>
   <time name="diag">    0.31    0.44</time>
   <time name="diis">    0.41    0.53</time>
   <time name="orth">    0.04    0.09</time>
   <time name="total">    0.77    1.07</time>
   <energy>
    <i name="e_fr_energy">   -159.79483147 </i>
    <i name="e_wo_entrp">   -159.83915799 </i>
    <i name="e_0_energy">   -159.80960698 </i>
   </energy>
  </scstep>
  <scstep>
   <time name="diag">    0.38    0.56</time>
   <time name="diis">    0.33    0.53</time>
   <time name="orth">    0.08    0.08</time>
   <time name="total">    0.79    1.18</time>
   <energy>
    <i name="e_fr_energy">   -194.35118804 </i>
    <i name="e_wo_entrp">   -194.46935805 </i>
    <i name="e_0_energy">   -194.39057805 </i>
   </energy>
  </scstep>
  <scstep>
   <time name="diag">    0.33    0.56</time>
   <time name="diis">    0.44    0.60</time>
   <time name="orth">    0.04    0.07</time>
   <time name="total">    0.81    1.23</time>
   <energy>
    <i name="e_fr_energy">   -207.90597950 </i>
    <i name="e_wo_entrp">   -208.08220975 </i>
    <i name="e_0_energy">   -207.96472292 </i>
   </energy>
  </scstep>
  <scstep>
   <time name="diag">    0.29    0.50</time>
   <time name="diis">    1.06    1.60</time>
   <time name="orth">    0.08    0.18</time>
   <time name="total">    1.44    2.28</time>
   <energy>
    <i name="e_fr_energy">   -221.69352455 </i>
    <i name="e_wo_entrp">   -221.91486580 </i>
    <i name="e_0_energy">   -221.76730496 </i>
   </energy>
  </scstep>
  <scstep>
   <time name="diag">    0.48    0.84</time>
   <time name="diis">    1.29    1.63</time>
   <time name="orth">    0.05    0.05</time>
   <time name="total">    1.82    2.52</time>
   <energy>
    <i name="e_fr_energy">   -221.90137553 </i>
    <i name="e_wo_entrp">   -222.11679902 </i>
    <i name="e_0_energy">   -221.97318336 </i>
   </energy>
  </scstep>
  <scstep>
   <time name="diag">    0.13    0.18</time>
   <time name="diis">    1.06    1.43</time>
   <time name="orth">    0.02    0.04</time>
   <time name="total">    1.22    1.66</time>
   <energy>
    <i name="e_fr_energy">   -222.18052991 </i>
    <i name="e_wo_entrp">   -222.37725479 </i>
    <i name="e_0_energy">   -222.24610487 </i>
   </energy>
  </scstep>
  <scstep>
   <time name="diag">    0.18    0.31</time>
   <time name="diis">    1.08    1.43</time>
   <time name="orth">    0.12    0.22</time>
   <time name="total">    1.90    2.56</time>
   <energy>
    <i name="e_fr_energy">   -222.32474287 </i>
    <i name="e_wo_entrp">   -222.47448442 </i>
    <i name="e_0_energy">   -222.37465672 </i>
   </energy>
  </scstep>
  <scstep>
   <time name="diag">    0.29    0.45</time>
   <time name="diis">    0.83    1.16</time>
   <time name="orth">    0.08    0.16</time>
   <time name="total">    1.42    2.10</time>
   <energy>
    <i name="e_fr_energy">   -205.57382643 </i>
    <i name="e_wo_entrp">   -205.55105276 </i>
    <i name="e_0_energy">   -205.56623520 </i>
   </energy>
  </scstep>
  <scstep>
   <time name="diag">    0.34    0.48</time>
   <time name="diis">    0.74    1.10</time>
   <time name="orth">    0.06    0.06</time>
   <time name="total">    1.32    1.92</time>
   <energy>
    <i name="e_fr_energy">   -266.40486954 </i>
    <i name="e_wo_entrp">   -266.37704367 </i>
    <i name="e_0_energy">   -266.39559425 </i>
   </energy>
  </scstep>
  <scstep>
   <time name="diag">    0.18    0.27</time>
   <time name="diis">    0.78    1.11</time>
   <time name="orth">    0.32    0.59</time>
   <time name="total">    1.48    2.29</time>
   <energy>
    <i name="e_fr_energy">   -268.31354947 </i>
    <i name="e_wo_entrp">   -268.38957945 </i>
    <i name="e_0_energy">   -268.33889280 </i>
   </energy>
  </scstep>
  <scstep>
   <time name="diag">    0.11    0.21</time>
   <time name="diis">    0.71    1.19</time>
   <time name="orth">    0.12    0.19</time>
   <time name="total">    1.23    2.00</time>
   <energy>
    <i name="e_fr_energy">   -208.32887712 </i>
    <i name="e_wo_entrp">   -208.35270154 </i>
    <i name="e_0_energy">   -208.33681859 </i>
   </energy>
  </scstep>
  <scstep>
   <time name="diag">    0.21    0.30</time>
   <time name="diis">    0.77    1.08</time>
   <time name="orth">    0.13    0.24</time>
   <time name="total">    1.29    1.85</time>
   <energy>
    <i name="e_fr_energy">   -224.24096102 </i>
    <i name="e_wo_entrp">   -224.43787784 </i>
    <i name="e_0_energy">   -224.30659996 </i>
   </energy>
  </scstep>
  <scstep>
   <time name="diag">    0.23    0.36</time>
   <time name="diis">    0.79    1.13</time>
   <time name="orth">    0.06    0.06</time>
   <time name="total">    1.31    1.88</time>
   <energy>
    <i name="e_fr_energy">   -236.26137351 </i>
    <i name="e_wo_entrp">   -236.08314694 </i>
    <i name="e_0_energy">   -236.20196465 </i>
   </energy>
  </scstep>
  <scstep>
   <time name="diag">    0.23    0.31</time>
   <time name="diis">    0.72    1.17</time>
   <time name="orth">    0.43    0.58</time>
   <time name="total">    1.71    2.59</time>
   <energy>
    <i name="e_fr_energy">   -243.86936935 </i>
    <i name="e_wo_entrp">   -243.73592159 </i>
    <i name="e_0_energy">   -243.82488676 </i>
   </energy>
  </scstep>
  <scstep>
   <time name="diag">    0.22    0.35</time>
   <time name="diis">    0.79    1.15</time>
   <time name="orth">    0.16    0.16</time>
   <time name="total">    1.47    2.04</time>
   <energy>
    <i name="e_fr_energy">   -230.32288913 </i>
    <i name="e_wo_entrp">   -230.22357649 </i>
    <i name="e_0_energy">   -230.28978492 </i>
   </energy>
  </scstep>
  <scstep>
   <time name="diag">    0.19    0.22</time>
   <time name="diis">    1.11    1.11</time>
   <time name="orth">    0.06    0.06</time>
   <time name="total">    1.73    1.82</time>
   <energy>
    <i name="e_fr_energy">   -228.04191631 </i>
    <i name="e_wo_entrp">   -228.07705531 </i>
    <i name="e_0_energy">   -228.05362931 </i>
   </energy>
  </scstep>
  <scstep>
   <time name="diag">    0.28    0.29</time>
   <time name="diis">    0.82    1.07</time>
   <time name="orth">    0.05    0.07</time>
   <time name="total">    1.47    1.79</time>
   <energy>
    <i name="e_fr_energy">   -238.46060914 </i>
    <i name="e_wo_entrp">   -238.45165567 </i>
    <i name="e_0_energy">   -238.45762465 </i>
   </energy>
  </scstep>
  <scstep>
   <time name="diag">    0.27    0.39</time>
   <time name="diis">    0.70    1.04</time>
   <time name="orth">    0.28    0.39</time>
   <time name="total">    1.59    2.32</time>
   <energy>
    <i name="e_fr_energy">   -220.43162589 </i>
    <i name="e_wo_entrp">   -220.24041210 </i>
    <i name="e_0_energy">   -220.36788796 </i>
   </energy>
  </scstep>
  <scstep>
   <time name="diag">    0.33    0.43</time>
   <time name="diis">    0.87    1.17</time>
   <time name="orth">    0.05    0.08</time>
   <time name="total">    1.42    1.97</time>
   <energy>
    <i name="e_fr_energy">   -229.07180910 </i>
    <i name="e_wo_entrp">   -228.94188623 </i>
    <i name="e_0_energy">   -229.02850148 </i>
   </energy>
  </scstep>
  <scstep>
   <time name="diag">    0.38    0.60</time>
   <time name="diis">    0.82    1.16</time>
   <time name="orth">    0.03    0.06</time>
   <time name="total">    1.41    2.06</time>
   <energy>
    <i name="e_fr_energy">   -214.49189886 </i>
    <i name="e_wo_entrp">   -214.40307190 </i>
    <i name="e_0_energy">   -214.46228987 </i>
   </energy>
  </scstep>
  <scstep>
   <time name="diag">    0.24    0.34</time>
   <time name="diis">    0.74    1.05</time>
   <time name="orth">    0.07    0.09</time>
   <time name="total">    1.41    2.00</time>
   <energy>
    <i name="e_fr_energy">   -210.51918465 </i>
    <i name="e_wo_entrp">   -210.53047034 </i>
    <i name="e_0_energy">   -210.52294655 </i>
   </energy>
  </scstep>
  <scstep>
   <time name="diag">    0.15    0.27</time>
   <time name="diis">    0.82    1.19</time>
   <time name="orth">    0.06    0.12</time>
   <time name="total">    1.72    2.73</time>
   <energy>
    <i name="e_fr_energy">   -198.11031142 </i>
    <i name="e_wo_entrp">   -198.04811990 </i>
    <i name="e_0_energy">   -198.08958091 </i>
   </energy>
  </scstep>
  <scstep>
   <time name="diag">    0.15    0.24</time>
   <time name="diis">    0.78    1.11</time>
   <time name="orth">    0.11    0.15</time>
   <time name="total">    1.42    2.13</time>
   <energy>
    <i name="e_fr_energy">   -196.60151122 </i>
    <i name="e_wo_entrp">   -196.64518894 </i>
    <i name="e_0_energy">   -196.61607046 </i>
   </energy>
  </scstep>
  <scstep>
   <time name="diag">    0.28    0.41</time>
   <time name="diis">    0.74    1.09</time>
   <time name="orth">    0.03    0.06</time>
   <time name="total">    1.29    1.96</time>
   <energy>
    <i name="e_fr_energy">   -193.23412235 </i>
    <i name="e_wo_entrp">   -193.29344375 </i>
    <i name="e_0_energy">   -193.25389615 </i>
   </energy>
  </scstep>
  <scstep>
   <time name="diag">    0.27    0.37</time>
   <time name="diis">    0.81    1.07</time>
   <time name="orth">    0.05    0.09</time>
   <time name="total">    1.34    1.83</time>
   <energy>
    <i name="e_fr_energy">   -191.97239164 </i>
    <i name="e_wo_entrp">   -192.05331458 </i>
    <i name="e_0_energy">   -191.99936595 </i>
   </energy>
  </scstep>
  <scstep>
   <time name="diag">    0.19    0.24</time>
   <time name="diis">    0.81    1.16</time>
   <time name="orth">    0.30    0.31</time>
   <time name="total">    1.63    2.20</time>
   <energy>
    <i name="e_fr_energy">   -191.60854070 </i>
    <i name="e_wo_entrp">   -191.67473208 </i>
    <i name="e_0_energy">   -191.63060449 </i>
   </energy>
  </scstep>
  <scstep>
   <time name="diag">    0.12    0.26</time>
   <time name="diis">    0.79    1.45</time>
   <time name="orth">    0.09    0.18</time>
   <time name="total">    1.55    2.68</time>
   <energy>
    <i name="e_fr_energy">   -190.74605137 </i>
    <i name="e_wo_entrp">   -190.73652390 </i>
    <i name="e_0_energy">   -190.74287555 </i>
   </energy>
  </scstep>
  <scstep>
   <time name="diag">    0.39    0.51</time>
   <time name="diis">    0.80    1.20</time>
   <time name="orth">    0.14    0.16</time>
   <time name="total">    1.60    2.15</time>
   <energy>
    <i name="e_fr_energy">   -190.42831528 </i>
    <i name="e_wo_entrp">   -190.50781273 </i>
    <i name="e_0_energy">   -190.45481443 </i>
   </energy>
  </scstep>
  <scstep>
   <time name="diag">    0.18    0.24</time>
   <time name="diis">    0.76    1.13</time>
   <time name="orth">    0.44    0.60</time>
   <time name="total">    1.81    2.47</time>
   <energy>
    <i name="e_fr_energy">   -190.05652405 </i>
    <i name="e_wo_entrp">   -190.06375745 </i>
    <i name="e_0_energy">   -190.05893518 </i>
   </energy>
  </scstep>
  <scstep>
   <time name="diag">    0.16    0.28</time>
   <time name="diis">    0.77    1.14</time>
   <time name="orth">    0.07    0.08</time>
   <time name="total">    1.41    2.10</time>
   <energy>
    <i name="e_fr_energy">   -189.83553148 </i>
    <i name="e_wo_entrp">   -189.90658530 </i>
    <i name="e_0_energy">   -189.85921609 </i>
   </energy>
  </scstep>
  <scstep>
   <time name="diag">    0.24    0.35</time>
   <time name="diis">    0.74    1.09</time>
   <time name="orth">    0.05    0.05</time>
   <time name="total">    1.33    1.87</time>
   <energy>
    <i name="e_fr_energy">   -189.24606588 </i>
    <i name="e_wo_entrp">   -189.26848004 </i>
    <i name="e_0_energy">   -189.25353727 </i>
   </energy>
  </scstep>
  <scstep>
   <time name="diag">    0.15    0.21</time>
   <time name="diis">    0.77    1.10</time>
   <time name="orth">    0.02    0.04</time>
   <time name="total">    1.21    1.75</time>
   <energy>
    <i name="e_fr_energy">   -189.11566220 </i>
    <i name="e_wo_entrp">   -189.13862451 </i>
    <i name="e_0_energy">   -189.12331631 </i>
   </energy>
  </scstep>
  <scstep>
   <time name="diag">    0.17    0.23</time>
   <time name="diis">    0.93    1.41</time>
   <time name="orth">    0.21    0.42</time>
   <time name="total">    1.56    2.37</time>
   <energy>
    <i name="e_fr_energy">   -189.14098345 </i>
    <i name="e_wo_entrp">   -189.17567733 </i>
    <i name="e_0_energy">   -189.15254808 </i>
   </energy>
  </scstep>
  <scstep>
   <time name="diag">    0.20    0.20</time>
   <time name="diis">    0.90    1.15</time>
   <time name="orth">    0.05    0.05</time>
   <time name="total">    1.44    1.78</time>
   <energy>
    <i name="e_fr_energy">   -189.07598812 </i>
    <i name="e_wo_entrp">   -189.08791878 </i>
    <i name="e_0_energy">   -189.07996501 </i>
   </energy>
  </scstep>
  <scstep>
   <time name="diag">    0.36    0.57</time>
   <time name="diis">    0.70    1.10</time>
   <time name="orth">    0.18    0.23</time>
   <time name="total">    1.42    2.19</time>
   <energy>
    <i name="e_fr_energy">   -189.11851114 </i>
    <i name="e_wo_entrp">   -189.15975345 </i>
    <i name="e_0_energy">   -189.13225858 </i>
   </energy>
  </scstep>
  <scstep>
   <time name="diag">    0.35    0.47</time>
   <time name="diis">    0.85    1.31</time>
   <time name="orth">    0.14    0.20</time>
   <time name="total">    1.63    2.47</time>
   <energy>
    <i name="e_fr_energy">   -189.17264325 </i>
    <i name="e_wo_entrp">   -189.17718149 </i>
    <i name="e_0_energy">   -189.17415600 </i>
   </energy>
  </scstep>
  <scstep>
   <time name="diag">    0.24    0.30</time>
   <time name="diis">    0.76    1.04</time>
   <time name="orth">    0.04    0.04</time>
   <time name="total">    1.33    1.80</time>
   <energy>
    <i name="e_fr_energy">   -189.09368810 </i>
    <i name="e_wo_entrp">   -189.11473784 </i>
    <i name="e_0_energy">   -189.10070468 </i>
   </energy>
  </scstep>
  <scstep>
   <time name="diag">    0.31    0.35</time>
   <time name="diis">    0.84    1.10</time>
   <time name="orth">    0.06    0.06</time>
   <time name="total">    1.50    1.89</time>
   <energy>
    <i name="e_fr_energy">   -189.07758529 </i>
    <i name="e_wo_entrp">   -189.08818348 </i>
    <i name="e_0_energy">   -189.08111802 </i>
   </energy>
  </scstep>
  <scstep>
   <time name="diag">    0.18    0.18</time>
   <time name="diis">    0.74    0.95</time>
   <time name="orth">    0.04    0.05</time>
   <time name="total">    1.29    1.51</time>
   <energy>
    <i name="e_fr_energy">   -189.07107398 </i>
    <i name="e_wo_entrp">   -189.08701602 </i>
    <i name="e_0_energy">   -189.07638800 </i>
   </energy>
  </scstep>
  <scstep>
   <time name="diag">    0.58    0.79</time>
   <time name="diis">    0.67    1.15</time>
   <time name="orth">    0.07    0.11</time>
   <time name="total">    1.65    2.44</time>
   <energy>
    <i name="e_fr_energy">   -189.05593740 </i>
    <i name="e_wo_entrp">   -189.06526954 </i>
    <i name="e_0_energy">   -189.05904812 </i>
   </energy>
  </scstep>
  <scstep>
   <time name="diag">    0.37    0.52</time>
   <time name="diis">    0.70    0.99</time>
   <time name="orth">    0.06    0.12</time>
   <time name="total">    1.30    1.83</time>
   <energy>
    <i name="e_fr_energy">   -189.05085422 </i>
    <i name="e_wo_entrp">   -189.06402012 </i>
    <i name="e_0_energy">   -189.05524285 </i>
   </energy>
  </scstep>
  <scstep>
   <time name="diag">    0.24    0.29</time>
   <time name="diis">    0.59    0.84</time>
   <time name="orth">    0.07    0.14</time>
   <time name="total">    1.11    1.52</time>
   <energy>
    <i name="e_fr_energy">   -189.04726703 </i>
    <i name="e_wo_entrp">   -189.06309176 </i>
    <i name="e_0_energy">   -189.05254194 </i>
   </energy>
  </scstep>
  <scstep>
   <time name="diag">    0.51    0.79</time>
   <time name="diis">    0.55    0.75</time>
   <time name="orth">    0.05    0.11</time>
   <time name="total">    1.51    2.25</time>
   <energy>
    <i name="e_fr_energy">   -189.04396342 </i>
    <i name="e_wo_entrp">   -189.06036523 </i>
    <i name="e_0_energy">   -189.04943069 </i>
   </energy>
  </scstep>
  <scstep>
   <time name="diag">    0.41    0.50</time>
   <time name="diis">    0.53    0.74</time>
   <time name="orth">    0.05    0.08</time>
   <time name="total">    1.32    1.81</time>
   <energy>
    <i name="e_fr_energy">   -189.04146588 </i>
    <i name="e_wo_entrp">   -189.06062502 </i>
    <i name="e_0_energy">   -189.04785226 </i>
   </energy>
  </scstep>
  <scstep>
   <time name="diag">    0.93    1.36</time>
   <time name="diis">    0.38    0.55</time>
   <time name="orth">    0.07    0.07</time>
   <time name="total">    1.68    2.43</time>
   <energy>
    <i name="e_fr_energy">   -189.03988234 </i>
    <i name="e_wo_entrp">   -189.05949235 </i>
    <i name="e_0_energy">   -189.04641901 </i>
   </energy>
  </scstep>
  <scstep>
   <time name="diag">    0.23    0.27</time>
   <time name="diis">    0.41    0.68</time>
   <time name="orth">    0.06    0.12</time>
   <time name="total">    0.89    1.33</time>
   <energy>
    <i name="e_fr_energy">   -189.03825695 </i>
    <i name="e_wo_entrp">   -189.05894346 </i>
    <i name="e_0_energy">   -189.04515245 </i>
   </energy>
  </scstep>
  <scstep>
   <time name="diag">    0.21    0.28</time>
   <time name="diis">    0.54    0.65</time>
   <time name="orth">    0.06    0.10</time>
   <time name="total">    1.02    1.32</time>
   <energy>
    <i name="e_fr_energy">   -189.03639410 </i>
    <i name="e_wo_entrp">   -189.05709146 </i>
    <i name="e_0_energy">   -189.04329322 </i>
   </energy>
  </scstep>
  <scstep>
   <time name="diag">    0.22    0.27</time>
   <time name="diis">    0.63    0.77</time>
   <time name="orth">    0.10    0.14</time>
   <time name="total">    1.21    1.54</time>
   <energy>
    <i name="e_fr_energy">   -189.03519742 </i>
    <i name="e_wo_entrp">   -189.05552659 </i>
    <i name="e_0_energy">   -189.04197381 </i>
   </energy>
  </scstep>
  <scstep>
   <time name="diag">    0.17    0.22</time>
   <time name="diis">    0.40    0.63</time>
   <time name="orth">    0.25    0.41</time>
   <time name="total">    1.01    1.54</time>
   <energy>
    <i name="e_fr_energy">   -189.03493029 </i>
    <i name="e_wo_entrp">   -189.05556544 </i>
    <i name="e_0_energy">   -189.04180867 </i>
   </energy>
  </scstep>
  <scstep>
   <time name="diag">    0.31    0.40</time>
   <time name="diis">    0.40    0.65</time>
   <time name="orth">    0.04    0.04</time>
   <time name="total">    1.13    1.67</time>
   <energy>
    <i name="e_fr_energy">   -189.03455408 </i>
    <i name="e_wo_entrp">   -189.05533525 </i>
    <i name="e_0_energy">   -189.04148114 </i>
   </energy>
  </scstep>
  <scstep>
   <time name="diag">    0.36    0.53</time>
   <time name="diis">    0.43    0.58</time>
   <time name="orth">    0.07    0.07</time>
   <time name="total">    0.92    1.31</time>
   <energy>
    <i name="alphaZ">    943.57652748 </i>
    <i name="ewald"> -15985.76958233 </i>
    <i name="hartreedc">  -6857.04704800 </i>
    <i name="XCdc">    918.65058107 </i>
    <i name="pawpsdc">  22447.34496360 </i>
    <i name="pawaedc"> -22657.92151363 </i>
    <i name="eentropy">      0.02110515 </i>
    <i name="bandstr">  -1501.98780331 </i>
    <i name="atom">  22504.09828397 </i>
    <i name="e_fr_energy">   -189.03448601 </i>
    <i name="e_wo_entrp">   -189.05559115 </i>
    <i name="e_0_energy">   -189.04152106 </i>
   </energy>
  </scstep>
  <structure>
   <crystal>
    <varray name="basis" >
     <v>       3.25262800       0.00000000       0.00000000 </v>
     <v>       0.00000000      20.54938400       0.00000000 </v>
     <v>      -0.03131200       0.00000000       6.79221100 </v>
    </varray>
    <i name="volume">    453.98799923 </i>
    <varray name="rec_basis" >
     <v>       0.30744370       0.00000000       0.00141731 </v>
     <v>       0.00000000       0.04866326       0.00000000 </v>
     <v>       0.00000000       0.00000000       0.14722746 </v>
    </varray>
   </crystal>
   <varray name="positions" >
    <v>       0.00000000       0.16671900       0.49328500 </v>
    <v>       0.00000000       0.83328100       0.50139100 </v>
    <v>       0.00000000       0.66671900       0.00139100 </v>
    <v>       0.00000000       0.33328100       0.00139100 </v>
    <v>       0.50000000       0.16602100       0.00000400 </v>
    <v>       0.50000000       0.84350700       0.00000400 </v>
    <v>       0.50000000       0.66602100       0.50000400 </v>
    <v>       0.50000000       0.33397900       0.50000400 </v>
    <v>       0.00000000       0.00000000       0.01216200 </v>
    <v>       0.00000000       0.50000000       0.51216200 </v>
    <v>       0.50000000       0.00000000       0.47240000 </v>
    <v>       0.50000000       0.50000000       0.97240000 </v>
    <v>       0.00000000       0.00000000       0.31436200 </v>
    <v>       0.99815200       0.50000000       0.81436200 </v>
    <v>       0.00000000       0.16816900       0.20329900 </v>
    <v>       0.00000000       0.83183100       0.20329900 </v>
    <v>       0.00000000       0.66816900       0.70329900 </v>
    <v>       0.00000000       0.33183100       0.70329900 </v>
    <v>       0.00000000       0.16838200       0.79934600 </v>
    <v>       0.00475400       0.83161800       0.79934600 </v>
    <v>       0.00000000       0.66838200       0.30415900 </v>
    <v>       0.00000000       0.33161800       0.29934600 </v>
    <v>       0.50000000       0.06837200       0.99633700 </v>
    <v>       0.50000000       0.93162800       0.99633700 </v>
    <v>       0.50000000       0.56837200       0.49633700 </v>
    <v>       0.50000000       0.43162800       0.49633700 </v>
    <v>       0.50778100       0.09818400       0.50567900 </v>
    <v>       0.50000000       0.90181600       0.50567900 </v>
    <v>       0.50365300       0.59818400       0.00567900 </v>
    <v>       0.50000000       0.40181600       0.00567900 </v>
    <v>       0.50000000       0.23406000       0.50152500 </v>
    <v>       0.50000000       0.76594000       0.50152500 </v>
    <v>       0.50000000       0.73406000       0.00512300 </v>
    <v>       0.50000000       0.26472000       0.00152500 </v>
    <v>       0.00000000       0.00013500       0.69474100 </v>
    <v>       0.00000000       0.50000000       0.19474100 </v>
   </varray>
  </structure>
  <varray name="forces" >
   <v>       0.06468148      -0.08383965       0.67132183 </v>
   <v>       0.06478872      -0.13360411       0.06498810 </v>
   <v>       0.03201249       0.11212963       0.17735790 </v>
   <v>       0.00197000       0.00744309       0.05768863 </v>
   <v>       0.00346057       0.28957682      -0.05856405 </v>
   <v>       0.05411564      -2.88081693       0.11401870 </v>
   <v>       0.00400164       0.30698742       0.21029866 </v>
   <v>       0.00582702      -0.28758756       0.08021729 </v>
   <v>      -0.01484604       0.16463479       1.04423137 </v>
   <v>      -0.04555180       0.00395831       1.00115901 </v>
   <v>       0.06782783       0.04155764       0.12636100 </v>
   <v>      -0.00319443       0.00031681       0.12389410 </v>
   <v>       0.02968963      -0.02877298      -1.18096984 </v>
   <v>       0.07865241      -0.00553914      -1.13527250 </v>
   <v>      -0.00923248      -0.20088086      -0.37307142 </v>
   <v>      -0.04840307       0.76181710      -0.12550115 </v>
   <v>      -0.01178034      -0.19565726      -0.26298421 </v>
   <v>      -0.01306572       0.19705004      -0.21585934 </v>
   <v>       0.01945182      -0.19226917       0.09186419 </v>
   <v>      -0.07324700       0.75476693       0.05995569 </v>
   <v>       0.01461350      -0.20213703      -0.00380539 </v>
   <v>       0.01326819       0.18128706       0.14927767 </v>
   <v>      -0.00240335      -0.45067370       0.20054092 </v>
   <v>      -0.00359227       1.88153965       0.14904264 </v>
   <v>      -0.00174645      -0.53540367       0.20825079 </v>
   <v>      -0.00383622       0.51789442       0.21026832 </v>
   <v>      -0.11833894       0.83135218      -0.32599755 </v>
   <v>      -0.00957874      -0.80026691      -0.17682704 </v>
   <v>      -0.05914268       0.89257931      -0.18787024 </v>
   <v>      -0.00682016      -0.82783970      -0.18620266 </v>
   <v>      -0.02544157      -0.38983656      -0.15576869 </v>
   <v>       0.00101868       0.42654628      -0.01985006 </v>
   <v>      -0.00697482      -0.61935604      -0.09371582 </v>
   <v>      -0.00078892       0.50663748      -0.01975656 </v>
   <v>      -0.00649877      -0.04565178      -0.08578216 </v>
   <v>       0.00910415       0.00205808      -0.13293815 </v>
  </varray>
  <varray name="stress" >
   <v>    -245.42982038      -0.23068058       0.60671978 </v>
   <v>      -0.23067996    -247.29831507       0.07656334 </v>
   <v>       0.60672023       0.07656444    -280.34555239 </v>
  </varray>
  <energy>
   <i name="e_fr_energy">   -189.03448601 </i>
   <i name="e_wo_entrp">   -189.04152106 </i>
   <i name="e_0_energy">      0.02110515 </i>
  </energy>
  <time name="totalsc">   78.12  111.49</time>
  <eigenvalues>
   <array>
    <dimension dim="1">band</dimension>
    <dimension dim="2">kpoint</dimension>
    <dimension dim="3">spin</dimension>
    <field>eigene</field>
    <field>occ</field>
    <set>
     <set comment="spin 1">
      <set comment="kpoint 1">
       <r>  -23.1264    1.0000 </r>
       <r>  -22.7420    1.0000 </r>
       <r>  -22.6471    1.0000 </r>
       <r>  -22.5951    1.0000 </r>
       <r>  -22.5131    1.0000 </r>
       <r>  -22.3655    1.0000 </r>
       <r>  -22.3228    1.0000 </r>
       <r>  -22.2855    1.0000 </r>
       <r>  -22.2655    1.0000 </r>
       <r>  -22.2544    1.0000 </r>
       <r>  -22.2324    1.0000 </r>
       <r>  -22.2270    1.0000 </r>
       <r>  -22.2130    1.0000 </r>
       <r>  -22.1984    1.0000 </r>
       <r>  -22.1612    1.0000 </r>
       <r>  -22.1524    1.0000 </r>
       <r>  -22.1406    1.0000 </r>
       <r>  -22.1253    1.0000 </r>
       <r>  -22.0996    1.0000 </r>
       <r>  -21.7432    1.0000 </r>
       <r>  -20.9943    1.0000 </r>
       <r>  -20.9429    1.0000 </r>
       <r>  -16.5682    1.0000 </r>
       <r>  -16.5399    1.0000 </r>
       <r>   -6.2473    1.0000 </r>
       <r>   -6.0840    1.0000 </r>
       <r>   -5.9971    1.0000 </r>
       <r>   -5.8566    1.0000 </r>
       <r>   -5.7837    1.0000 </r>
       <r>   -5.5576    1.0000 </r>
       <r>   -5.3957    1.0000 </r>
       <r>   -5.3288    1.0000 </r>
       <r>   -5.2278    1.0000 </r>
       <r>   -5.0130    1.0000 </r>
       <r>   -4.6853    1.0000 </r>
       <r>   -4.6663    1.0000 </r>
       <r>   -4.6519    1.0000 </r>
       <r>   -4.5935    1.0000 </r>
       <r>   -4.5039    1.0000 </r>
       <r>   -4.4257    1.0000 </r>
       <r>   -4.4008    1.0000 </r>
       <r>   -4.3607    1.0000 </r>
       <r>   -4.3458    1.0000 </r>
       <r>   -4.3322    1.0000 </r>
       <r>   -4.3141    1.0000 </r>
       <r>   -4.2943    1.0000 </r>
       <r>   -4.2376    1.0000 </r>
       <r>   -4.2249    1.0000 </r>
       <r>   -4.2175    1.0000 </r>
       <r>   -4.1909    1.0000 </r>
       <r>   -4.1764    1.0000 </r>
       <r>   -4.1673    1.0000 </r>
       <r>   -4.1389    1.0000 </r>
       <r>   -4.1300    1.0000 </r>
       <r>   -4.1049    1.0000 </r>
       <r>   -4.0953    1.0000 </r>
       <r>   -4.0583    1.0000 </r>
       <r>   -4.0285    1.0000 </r>
       <r>   -3.9912    1.0000 </r>
       <r>   -3.9570    1.0000 </r>
       <r>   -3.9353    1.0000 </r>
       <r>   -3.9024    1.0000 </r>
       <r>   -3.8506    1.0000 </r>
       <r>   -3.7034    1.0000 </r>
       <r>   -3.6854    1.0000 </r>
       <r>   -3.6382    1.0000 </r>
       <r>   -3.5865    1.0000 </r>
       <r>   -3.5203    1.0000 </r>
       <r>   -3.4849    1.0000 </r>
       <r>   -3.4678    1.0000 </r>
       <r>   -3.4366    1.0000 </r>
       <r>   -3.3507    1.0000 </r>
       <r>   -3.2958    1.0000 </r>
       <r>   -3.2454    1.0000 </r>
       <r>   -3.2045    1.0000 </r>
       <r>   -3.1972    1.0000 </r>
       <r>   -3.1745    1.0000 </r>
       <r>   -3.1606    1.0000 </r>
       <r>   -3.1158    1.0000 </r>
       <r>   -3.1061    1.0000 </r>
       <r>   -3.0769    1.0000 </r>
       <r>   -3.0411    1.0000 </r>
       <r>   -2.9892    1.0000 </r>
       <r>   -2.9198    1.0000 </r>
       <r>   -2.8337    1.0000 </r>
       <r>   -2.7444    1.0000 </r>
       <r>   -2.6133    1.0000 </r>
       <r>   -2.4399    1.0000 </r>
       <r>   -2.0768    1.0000 </r>
       <r>   -2.0455    1.0000 </r>
       <r>   -2.0276    1.0000 </r>
       <r>   -1.9694    1.0000 </r>
       <r>   -1.8799    1.0000 </r>
       <r>   -1.8057    1.0000 </r>
       <r>   -1.3154    1.0000 </r>
       <r>   -1.2700    1.0000 </r>
       <r>    0.8260    1.0000 </r>
       <r>    0.8705    1.0000 </r>
       <r>    0.9055    1.0000 </r>
       <r>    0.9421    1.0000 </r>
       <r>    0.9639    1.0000 </r>
       <r>    0.9784    1.0000 </r>
       <r>    0.9998    1.0000 </r>
       <r>    1.0116    1.0000 </r>
       <r>    1.0234    1.0000 </r>
       <r>    1.0475    1.0000 </r>
       <r>    1.0848    1.0000 </r>
       <r>    1.0946    1.0000 </r>
       <r>    1.1575    1.0000 </r>
       <r>    1.1772    1.0000 </r>
       <r>    1.1886    1.0000 </r>
       <r>    1.1965    1.0000 </r>
       <r>    1.2242    1.0000 </r>
       <r>    1.2520    1.0001 </r>
       <r>    1.2584    1.0001 </r>
       <r>    1.2629    1.0001 </r>
       <r>    1.2665    1.0001 </r>
       <r>    1.3076    1.0004 </r>
       <r>    1.3297    1.0006 </r>
       <r>    1.3438    1.0009 </r>
       <r>    1.3935    1.0026 </r>
       <r>    1.4035    1.0031 </r>
       <r>    1.4084    1.0034 </r>
       <r>    1.5141    1.0181 </r>
       <r>    1.5499    1.0263 </r>
       <r>    1.6179    1.0353 </r>
       <r>    1.6852    1.0027 </r>
       <r>    1.7024    0.9815 </r>
       <r>    1.7719    0.8235 </r>
       <r>    1.7872    0.7733 </r>
       <r>    1.8275    0.6195 </r>
       <r>    1.8578    0.4926 </r>
       <r>    1.9049    0.3001 </r>
       <r>    1.9754    0.0816 </r>
       <r>    1.9856    0.0598 </r>
       <r>    2.0651   -0.0292 </r>
       <r>    2.1274   -0.0332 </r>
       <r>    2.1330   -0.0323 </r>
       <r>    2.1356   -0.0319 </r>
       <r>    2.1499   -0.0290 </r>
       <r>    2.1745   -0.0234 </r>
       <r>    2.1848   -0.0211 </r>
       <r>    2.2471   -0.0092 </r>
       <r>    2.2618   -0.0073 </r>
       <r>    2.2788   -0.0054 </r>
       <r>    2.3120   -0.0029 </r>
       <r>    2.4085   -0.0003 </r>
       <r>    2.4109   -0.0003 </r>
       <r>    2.4342   -0.0002 </r>
       <r>    2.4580   -0.0001 </r>
       <r>    2.5691   -0.0000 </r>
       <r>    2.9164   -0.0000 </r>
       <r>    3.1004   -0.0000 </r>
       <r>    3.2205   -0.0000 </r>
       <r>    3.2947   -0.0000 </r>
       <r>    3.3051   -0.0000 </r>
       <r>    4.1266   -0.0000 </r>
       <r>    4.6412   -0.0000 </r>
       <r>    4.9082   -0.0000 </r>
       <r>    6.4253   -0.0000 </r>
      </set>
     </set>
    </set>
   </array>
  </eigenvalues>
  <separator name="orbital magnetization" >
   <v name="MAGDIPOLOUT">      0.00000000      0.00000000      0.00000000</v>
  </separator>
  <dos>
   <i name="efermi">      1.85610654 </i>
   <total>
    <array>
     <dimension dim="1">gridpoints</dimension>
     <dimension dim="2">spin</dimension>
     <field>energy</field>
     <field>total</field>
     <field>integrated</field>
     <set>
      <set comment="spin 1">
       <r>   -25.1264     0.0000     0.0000 </r>
       <r>   -25.0145     0.0000     0.0000 </r>
       <r>   -24.9027     0.0000     0.0000 </r>
       <r>   -24.7909    -0.0000    -0.0000 </r>
       <r>   -24.6790    -0.0000    -0.0000 </r>
       <r>   -24.5672    -0.0000    -0.0000 </r>
       <r>   -24.4553    -0.0000    -0.0000 </r>
       <r>   -24.3435    -0.0000    -0.0000 </r>
       <r>   -24.2317    -0.0000    -0.0000 </r>
       <r>   -24.1198    -0.0000    -0.0000 </r>
       <r>   -24.0080    -0.0000    -0.0000 </r>
       <r>   -23.8961    -0.0000    -0.0000 </r>
       <r>   -23.7843    -0.0003    -0.0000 </r>
       <r>   -23.6725    -0.0067    -0.0008 </r>
       <r>   -23.5606    -0.0721    -0.0088 </r>
       <r>   -23.4488    -0.3235    -0.0450 </r>
       <r>   -23.3369    -0.1320    -0.0598 </r>
       <r>   -23.2251     2.8862     0.2630 </r>
       <r>   -23.1133     7.2997     1.0794 </r>
       <r>   -23.0014     5.9382     1.7435 </r>
       <r>   -22.8896     2.0416     1.9718 </r>
       <r>   -22.7778     6.7652     2.7285 </r>
       <r>   -22.6659    18.0437     4.7465 </r>
       <r>   -22.5541    22.2190     7.2314 </r>
       <r>   -22.4422    21.6096     9.6482 </r>
       <r>   -22.3304    43.4836    14.5114 </r>
       <r>   -22.2186    83.4534    23.8447 </r>
       <r>   -22.1067    85.7555    33.4355 </r>
       <r>   -21.9949    40.9005    38.0098 </r>
       <r>   -21.8830     5.6986    38.6471 </r>
       <r>   -21.7712     2.6374    38.9421 </r>
       <r>   -21.6594     6.5010    39.6692 </r>
       <r>   -21.5475     3.3724    40.0463 </r>
       <r>   -21.4357    -0.0432    40.0415 </r>
       <r>   -21.3238    -0.8332    39.9483 </r>
       <r>   -21.2120    -0.7010    39.8699 </r>
       <r>   -21.1002     3.4487    40.2556 </r>
       <r>   -20.9883    12.7092    41.6770 </r>
       <r>   -20.8765    15.0427    43.3594 </r>
       <r>   -20.7647     6.5210    44.0887 </r>
       <r>   -20.6528     0.0659    44.0960 </r>
       <r>   -20.5410    -0.6650    44.0217 </r>
       <r>   -20.4291    -0.1742    44.0022 </r>
       <r>   -20.3173    -0.0184    44.0001 </r>
       <r>   -20.2055    -0.0009    44.0000 </r>
       <r>   -20.0936    -0.0000    44.0000 </r>
       <r>   -19.9818    -0.0000    44.0000 </r>
       <r>   -19.8699    -0.0000    44.0000 </r>
       <r>   -19.7581    -0.0000    44.0000 </r>
       <r>   -19.6463    -0.0000    44.0000 </r>
       <r>   -19.5344     0.0000    44.0000 </r>
       <r>   -19.4226     0.0000    44.0000 </r>
       <r>   -19.3107     0.0000    44.0000 </r>
       <r>   -19.1989     0.0000    44.0000 </r>
       <r>   -19.0871     0.0000    44.0000 </r>
       <r>   -18.9752     0.0000    44.0000 </r>
       <r>   -18.8634     0.0000    44.0000 </r>
       <r>   -18.7516     0.0000    44.0000 </r>
       <r>   -18.6397     0.0000    44.0000 </r>
       <r>   -18.5279     0.0000    44.0000 </r>
       <r>   -18.4160     0.0000    44.0000 </r>
       <r>   -18.3042     0.0000    44.0000 </r>
       <r>   -18.1924    -0.0000    44.0000 </r>
       <r>   -18.0805    -0.0000    44.0000 </r>
       <r>   -17.9687    -0.0000    44.0000 </r>
       <r>   -17.8568    -0.0000    44.0000 </r>
       <r>   -17.7450    -0.0000    44.0000 </r>
       <r>   -17.6332    -0.0000    44.0000 </r>
       <r>   -17.5213    -0.0000    44.0000 </r>
       <r>   -17.4095    -0.0000    44.0000 </r>
       <r>   -17.2976    -0.0000    44.0000 </r>
       <r>   -17.1858    -0.0014    43.9998 </r>
       <r>   -17.0740    -0.0261    43.9969 </r>
       <r>   -16.9621    -0.2281    43.9714 </r>
       <r>   -16.8503    -0.7576    43.8867 </r>
       <r>   -16.7384     0.5413    43.9472 </r>
       <r>   -16.6266     8.2078    44.8652 </r>
       <r>   -16.5148    15.9165    46.6452 </r>
       <r>   -16.4029    11.2350    47.9017 </r>
       <r>   -16.2911     2.0890    48.1354 </r>
       <r>   -16.1793    -0.7843    48.0477 </r>
       <r>   -16.0674    -0.3684    48.0065 </r>
       <r>   -15.9556    -0.0541    48.0004 </r>
       <r>   -15.8437    -0.0036    48.0000 </r>
       <r>   -15.7319    -0.0001    48.0000 </r>
       <r>   -15.6201    -0.0000    48.0000 </r>
       <r>   -15.5082    -0.0000    48.0000 </r>
       <r>   -15.3964    -0.0000    48.0000 </r>
       <r>   -15.2845    -0.0000    48.0000 </r>
       <r>   -15.1727     0.0000    48.0000 </r>
       <r>   -15.0609     0.0000    48.0000 </r>
       <r>   -14.9490     0.0000    48.0000 </r>
       <r>   -14.8372     0.0000    48.0000 </r>
       <r>   -14.7253     0.0000    48.0000 </r>
       <r>   -14.6135     0.0000    48.0000 </r>
       <r>   -14.5017     0.0000    48.0000 </r>
       <r>   -14.3898     0.0000    48.0000 </r>
       <r>   -14.2780     0.0000    48.0000 </r>
       <r>   -14.1662     0.0000    48.0000 </r>
       <r>   -14.0543     0.0000    48.0000 </r>
       <r>   -13.9425     0.0000    48.0000 </r>
       <r>   -13.8306     0.0000    48.0000 </r>
       <r>   -13.7188     0.0000    48.0000 </r>
       <r>   -13.6070     0.0000    48.0000 </r>
       <r>   -13.4951     0.0000    48.0000 </r>
       <r>   -13.3833     0.0000    48.0000 </r>
       <r>   -13.2714     0.0000    48.0000 </r>
       <r>   -13.1596     0.0000    48.0000 </r>
       <r>   -13.0478     0.0000    48.0000 </r>
       <r>   -12.9359     0.0000    48.0000 </r>
       <r>   -12.8241     0.0000    48.0000 </r>
       <r>   -12.7122     0.0000    48.0000 </r>
       <r>   -12.6004     0.0000    48.0000 </r>
       <r>   -12.4886     0.0000    48.0000 </r>
       <r>   -12.3767     0.0000    48.0000 </r>
       <r>   -12.2649     0.0000    48.0000 </r>
       <r>   -12.1531     0.0000    48.0000 </r>
       <r>   -12.0412     0.0000    48.0000 </r>
       <r>   -11.9294     0.0000    48.0000 </r>
       <r>   -11.8175     0.0000    48.0000 </r>
       <r>   -11.7057     0.0000    48.0000 </r>
       <r>   -11.5939     0.0000    48.0000 </r>
       <r>   -11.4820     0.0000    48.0000 </r>
       <r>   -11.3702     0.0000    48.0000 </r>
       <r>   -11.2583     0.0000    48.0000 </r>
       <r>   -11.1465     0.0000    48.0000 </r>
       <r>   -11.0347     0.0000    48.0000 </r>
       <r>   -10.9228     0.0000    48.0000 </r>
       <r>   -10.8110     0.0000    48.0000 </r>
       <r>   -10.6991     0.0000    48.0000 </r>
       <r>   -10.5873     0.0000    48.0000 </r>
       <r>   -10.4755     0.0000    48.0000 </r>
       <r>   -10.3636     0.0000    48.0000 </r>
       <r>   -10.2518     0.0000    48.0000 </r>
       <r>   -10.1399     0.0000    48.0000 </r>
       <r>   -10.0281     0.0000    48.0000 </r>
       <r>    -9.9163     0.0000    48.0000 </r>
       <r>    -9.8044     0.0000    48.0000 </r>
       <r>    -9.6926     0.0000    48.0000 </r>
       <r>    -9.5808     0.0000    48.0000 </r>
       <r>    -9.4689     0.0000    48.0000 </r>
       <r>    -9.3571     0.0000    48.0000 </r>
       <r>    -9.2452     0.0000    48.0000 </r>
       <r>    -9.1334     0.0000    48.0000 </r>
       <r>    -9.0216     0.0000    48.0000 </r>
       <r>    -8.9097     0.0000    48.0000 </r>
       <r>    -8.7979     0.0000    48.0000 </r>
       <r>    -8.6860     0.0000    48.0000 </r>
       <r>    -8.5742     0.0000    48.0000 </r>
       <r>    -8.4624     0.0000    48.0000 </r>
       <r>    -8.3505     0.0000    48.0000 </r>
       <r>    -8.2387     0.0000    48.0000 </r>
       <r>    -8.1268     0.0000    48.0000 </r>
       <r>    -8.0150     0.0000    48.0000 </r>
       <r>    -7.9032    -0.0000    48.0000 </r>
       <r>    -7.7913    -0.0000    48.0000 </r>
       <r>    -7.6795    -0.0000    48.0000 </r>
       <r>    -7.5677    -0.0000    48.0000 </r>
       <r>    -7.4558    -0.0000    48.0000 </r>
       <r>    -7.3440    -0.0000    48.0000 </r>
       <r>    -7.2321    -0.0000    48.0000 </r>
       <r>    -7.1203    -0.0000    48.0000 </r>
       <r>    -7.0085    -0.0000    48.0000 </r>
       <r>    -6.8966    -0.0004    48.0000 </r>
       <r>    -6.7848    -0.0083    47.9990 </r>
       <r>    -6.6729    -0.0861    47.9894 </r>
       <r>    -6.5611    -0.3816    47.9467 </r>
       <r>    -6.4493    -0.2899    47.9143 </r>
       <r>    -6.3374     2.5966    48.2047 </r>
       <r>    -6.2256     8.4992    49.1552 </r>
       <r>    -6.1137    13.9097    50.7109 </r>
       <r>    -6.0019    17.3841    52.6551 </r>
       <r>    -5.8901    18.7692    54.7542 </r>
       <r>    -5.7782    17.2571    56.6842 </r>
       <r>    -5.6664    11.9438    58.0200 </r>
       <r>    -5.5546     9.3761    59.0686 </r>
       <r>    -5.4427    13.6572    60.5960 </r>
       <r>    -5.3309    19.4497    62.7713 </r>
       <r>    -5.2190    18.6954    64.8621 </r>
       <r>    -5.1072    12.3325    66.2414 </r>
       <r>    -4.9954     7.9216    67.1273 </r>
       <r>    -4.8835     4.6606    67.6486 </r>
       <r>    -4.7717     8.6636    68.6175 </r>
       <r>    -4.6598    24.3906    71.3453 </r>
       <r>    -4.5480    34.2712    75.1782 </r>
       <r>    -4.4362    42.2224    79.9003 </r>
       <r>    -4.3243    66.4142    87.3280 </r>
       <r>    -4.2125    92.4062    97.6626 </r>
       <r>    -4.1006    97.7725   108.5974 </r>
       <r>    -3.9888    79.1718   117.4519 </r>
       <r>    -3.8770    51.3764   123.1977 </r>
       <r>    -3.7651    31.6142   126.7334 </r>
       <r>    -3.6533    31.4081   130.2461 </r>
       <r>    -3.5414    41.0375   134.8357 </r>
       <r>    -3.4296    43.7304   139.7264 </r>
       <r>    -3.3178    44.0437   144.6522 </r>
       <r>    -3.2059    57.3284   151.0638 </r>
       <r>    -3.0941    68.2629   158.6982 </r>
       <r>    -2.9823    54.5264   164.7964 </r>
       <r>    -2.8704    32.4373   168.4242 </r>
       <r>    -2.7586    20.8659   170.7578 </r>
       <r>    -2.6467    16.1923   172.5687 </r>
       <r>    -2.5349    13.0852   174.0322 </r>
       <r>    -2.4231    10.0984   175.1616 </r>
       <r>    -2.3112     4.7624   175.6942 </r>
       <r>    -2.1994     3.8841   176.1286 </r>
       <r>    -2.0875    18.1609   178.1597 </r>
       <r>    -1.9757    33.9185   181.9531 </r>
       <r>    -1.8639    31.8134   185.5111 </r>
       <r>    -1.7520    18.0527   187.5301 </r>
       <r>    -1.6402     4.9160   188.0799 </r>
       <r>    -1.5283    -0.9087   187.9782 </r>
       <r>    -1.4165     3.2068   188.3369 </r>
       <r>    -1.3047    13.1199   189.8042 </r>
       <r>    -1.1928    14.7469   191.4535 </r>
       <r>    -1.0810     5.8420   192.1069 </r>
       <r>    -0.9692    -0.1563   192.0894 </r>
       <r>    -0.8573    -0.6330   192.0186 </r>
       <r>    -0.7455    -0.1505   192.0017 </r>
       <r>    -0.6336    -0.0148   192.0001 </r>
       <r>    -0.5218    -0.0007   192.0000 </r>
       <r>    -0.4100    -0.0000   192.0000 </r>
       <r>    -0.2981    -0.0000   192.0000 </r>
       <r>    -0.1863    -0.0000   192.0000 </r>
       <r>    -0.0744    -0.0000   192.0000 </r>
       <r>     0.0374    -0.0000   192.0000 </r>
       <r>     0.1492    -0.0002   192.0000 </r>
       <r>     0.2611    -0.0061   191.9993 </r>
       <r>     0.3729    -0.0899   191.9892 </r>
       <r>     0.4848    -0.6594   191.9155 </r>
       <r>     0.5966    -2.0961   191.6811 </r>
       <r>     0.7084    -0.1225   191.6674 </r>
       <r>     0.8203    17.6580   193.6422 </r>
       <r>     0.9321    53.0582   199.5762 </r>
       <r>     1.0439    82.0474   208.7523 </r>
       <r>     1.1558    93.9579   219.2604 </r>
       <r>     1.2676   100.3568   230.4842 </r>
       <r>     1.3795    88.4357   240.3748 </r>
       <r>     1.4913    57.0167   246.7515 </r>
       <r>     1.6031    37.0719   250.8976 </r>
       <r>     1.7150    39.6453   255.3315 </r>
       <r>     1.8268    47.1570   260.6054 </r>
       <r>     1.9387    46.6344   265.8210 </r>
       <r>     2.0505    50.9062   271.5143 </r>
       <r>     2.1623    68.0188   279.1214 </r>
       <r>     2.2742    73.9019   287.3865 </r>
       <r>     2.3860    61.0898   294.2188 </r>
       <r>     2.4979    43.3541   299.0674 </r>
       <r>     2.6097    22.1906   301.5492 </r>
       <r>     2.7215     5.3939   302.1525 </r>
       <r>     2.8334     2.1699   302.3952 </r>
       <r>     2.9452     6.9859   303.1765 </r>
       <r>     3.0570    11.2805   304.4381 </r>
       <r>     3.1689    17.7410   306.4222 </r>
       <r>     3.2807    24.9560   309.2133 </r>
       <r>     3.3926    20.1455   311.4663 </r>
       <r>     3.5044     6.4318   312.1856 </r>
       <r>     3.6162    -0.6534   312.1126 </r>
       <r>     3.7281    -0.9573   312.0055 </r>
       <r>     3.8399    -0.5770   311.9410 </r>
       <r>     3.9518     0.4093   311.9867 </r>
       <r>     4.0636     4.5419   312.4947 </r>
       <r>     4.1754     8.0513   313.3951 </r>
       <r>     4.2873     4.9652   313.9504 </r>
       <r>     4.3991     0.3837   313.9934 </r>
       <r>     4.5110     1.1368   314.1205 </r>
       <r>     4.6228     5.9534   314.7863 </r>
       <r>     4.7346     8.1034   315.6926 </r>
       <r>     4.8465     7.7517   316.5596 </r>
       <r>     4.9583     8.0259   317.4572 </r>
       <r>     5.0702     4.8068   317.9947 </r>
       <r>     5.1820     0.6422   318.0666 </r>
       <r>     5.2938    -0.4159   318.0201 </r>
       <r>     5.4057    -0.1575   318.0025 </r>
       <r>     5.5175    -0.0206   318.0001 </r>
       <r>     5.6293    -0.0012   318.0000 </r>
       <r>     5.7412    -0.0002   318.0000 </r>
       <r>     5.8530    -0.0034   317.9996 </r>
       <r>     5.9649    -0.0443   317.9946 </r>
       <r>     6.0767    -0.2510   317.9666 </r>
       <r>     6.1885    -0.3304   317.9296 </r>
       <r>     6.3004     1.8669   318.1384 </r>
       <r>     6.4122     6.7147   318.8894 </r>
       <r>     6.5241     7.5451   319.7332 </r>
       <r>     6.6359     2.9179   320.0596 </r>
       <r>     6.7477    -0.1300   320.0450 </r>
       <r>     6.8596    -0.3234   320.0088 </r>
       <r>     6.9714    -0.0721   320.0008 </r>
       <r>     7.0833    -0.0067   320.0000 </r>
       <r>     7.1951    -0.0003   320.0000 </r>
       <r>     7.3069    -0.0000   320.0000 </r>
       <r>     7.4188    -0.0000   320.0000 </r>
       <r>     7.5306    -0.0000   320.0000 </r>
       <r>     7.6424    -0.0000   320.0000 </r>
       <r>     7.7543    -0.0000   320.0000 </r>
       <r>     7.8661     0.0000   320.0000 </r>
       <r>     7.9780     0.0000   320.0000 </r>
       <r>     8.0898     0.0000   320.0000 </r>
       <r>     8.2016     0.0000   320.0000 </r>
       <r>     8.3135     0.0000   320.0000 </r>
       <r>     8.4253     0.0000   320.0000 </r>
      </set>
     </set>
    </array>
   </total>
  </dos>
 </calculation>
 <structure name="finalpos" >
  <crystal>
   <varray name="basis" >
    <v>       3.25262800       0.00000000       0.00000000 </v>
    <v>       0.00000000      20.54938400       0.00000000 </v>
    <v>      -0.03131200       0.00000000       6.79221100 </v>
   </varray>
   <i name="volume">    453.98799923 </i>
   <varray name="rec_basis" >
    <v>       0.30744370       0.00000000       0.00141731 </v>
    <v>       0.00000000       0.04866326       0.00000000 </v>
    <v>       0.00000000       0.00000000       0.14722746 </v>
   </varray>
  </crystal>
  <varray name="positions" >
   <v>       0.00000000       0.16671900       0.49328500 </v>
   <v>       0.00000000       0.83328100       0.50139100 </v>
   <v>       0.00000000       0.66671900       0.00139100 </v>
   <v>       0.00000000       0.33328100       0.00139100 </v>
   <v>       0.50000000       0.16602100       0.00000400 </v>
   <v>       0.50000000       0.84350700       0.00000400 </v>
   <v>       0.50000000       0.66602100       0.50000400 </v>
   <v>       0.50000000       0.33397900       0.50000400 </v>
   <v>       0.00000000       0.00000000       0.01216200 </v>
   <v>       0.00000000       0.50000000       0.51216200 </v>
   <v>       0.50000000       0.00000000       0.47240000 </v>
   <v>       0.50000000       0.50000000       0.97240000 </v>
   <v>       0.00000000       0.00000000       0.31436200 </v>
   <v>       0.99815200       0.50000000       0.81436200 </v>
   <v>       0.00000000       0.16816900       0.20329900 </v>
   <v>       0.00000000       0.83183100       0.20329900 </v>
   <v>       0.00000000       0.66816900       0.70329900 </v>
   <v>       0.00000000       0.33183100       0.70329900 </v>
   <v>       0.00000000       0.16838200       0.79934600 </v>
   <v>       0.00475400       0.83161800       0.79934600 </v>
   <v>       0.00000000       0.66838200       0.30415900 </v>
   <v>       0.00000000       0.33161800       0.29934600 </v>
   <v>       0.50000000       0.06837200       0.99633700 </v>
   <v>       0.50000000       0.93162800       0.99633700 </v>
   <v>       0.50000000       0.56837200       0.49633700 </v>
   <v>       0.50000000       0.43162800       0.49633700 </v>
   <v>       0.50778100       0.09818400       0.50567900 </v>
   <v>       0.50000000       0.90181600       0.50567900 </v>
   <v>       0.50365300       0.59818400       0.00567900 </v>
   <v>       0.50000000       0.40181600       0.00567900 </v>
   <v>       0.50000000       0.23406000       0.50152500 </v>
   <v>       0.50000000       0.76594000       0.50152500 </v>
   <v>       0.50000000       0.73406000       0.00512300 </v>
   <v>       0.50000000       0.26472000       0.00152500 </v>
   <v>       0.00000000       0.00013500       0.69474100 </v>
   <v>       0.00000000       0.50000000       0.19474100 </v>
  </varray>
 </structure>
</modeling>
