<?xml version="1.0" encoding="ISO-8859-1"?>
<modeling>
 <generator>
  <i name="program" type="string">vasp </i>
  <i name="version" type="string">5.3.5  </i>
  <i name="subversion" type="string">31Mar14 (build Aug 29 2014 19:41:47) complex                          parallel </i>
  <i name="platform" type="string">LinuxIFC </i>
  <i name="date" type="string">2019 04 11 </i>
  <i name="time" type="string">13:03:47 </i>
 </generator>
 <incar>
  <i type="string" name="SYSTEM"> Fe4OF7_var_30</i>
  <i type="int" name="ISTART">     0</i>
  <i type="string" name="PREC">normal</i>
  <i type="string" name="ALGO"> VeryFast</i>
  <i type="int" name="ISPIN">     1</i>
  <i type="int" name="ICHARG">     2</i>
  <i type="int" name="NELM">   300</i>
  <i type="int" name="ISYM">     0</i>
  <i type="logical" name="LWAVE"> F  </i>
  <i type="int" name="NELM">   300</i>
 </incar>
 <kpoints>
  <generation param="Gamma">
   <v type="int" name="divisions">       1        1        1 </v>
   <v name="usershift">      0.00000000       0.00000000       0.00000000 </v>
   <v name="genvec1">      1.00000000       0.00000000       0.00000000 </v>
   <v name="genvec2">      0.00000000       1.00000000       0.00000000 </v>
   <v name="genvec3">     -0.00000000       0.00000000       1.00000000 </v>
   <v name="shift">      0.00000000       0.00000000       0.00000000 </v>
  </generation>
  <varray name="kpointlist" >
   <v>       0.00000000       0.00000000       0.00000000 </v>
  </varray>
  <varray name="weights" >
   <v>       1.00000000 </v>
  </varray>
 </kpoints>
 <parameters>
  <separator name="general" >
   <i type="string" name="SYSTEM">Fe4OF7_var_30</i>
   <i type="logical" name="LCOMPAT"> F  </i>
  </separator>
  <separator name="electronic" >
   <i type="string" name="PREC">normal</i>
   <i name="ENMAX">    400.00000000</i>
   <i name="ENAUG">    613.61400000</i>
   <i name="EDIFF">      0.00010000</i>
   <i type="int" name="IALGO">    48</i>
   <i type="int" name="IWAVPR">    10</i>
   <i type="int" name="NBANDS">   104</i>
   <i name="NELECT">    174.00000000</i>
   <i type="int" name="TURBO">     0</i>
   <i type="int" name="IRESTART">     0</i>
   <i type="int" name="NREBOOT">     0</i>
   <i type="int" name="NMIN">     0</i>
   <i name="EREF">      0.00000000</i>
   <separator name="electronic smearing" >
    <i type="int" name="ISMEAR">     1</i>
    <i name="SIGMA">      0.20000000</i>
    <i name="KSPACING">      0.50000000</i>
    <i type="logical" name="KGAMMA"> T  </i>
   </separator>
   <separator name="electronic projectors" >
    <i type="logical" name="LREAL"> F  </i>
    <v name="ROPT">      0.00000000      0.00000000      0.00000000</v>
    <i type="int" name="LMAXPAW">  -100</i>
    <i type="int" name="LMAXMIX">     2</i>
    <i type="logical" name="NLSPLINE"> F  </i>
   </separator>
   <separator name="electronic startup" >
    <i type="int" name="ISTART">     0</i>
    <i type="int" name="ICHARG">     2</i>
    <i type="int" name="INIWAV">     1</i>
   </separator>
   <separator name="electronic spin" >
    <i type="int" name="ISPIN">     1</i>
    <i type="logical" name="LNONCOLLINEAR"> F  </i>
    <v name="MAGMOM">      1.00000000      1.00000000      1.00000000      1.00000000      1.00000000      1.00000000      1.00000000      1.00000000      1.00000000      1.00000000      1.00000000      1.00000000      1.00000000      1.00000000      1.00000000      1.00000000      1.00000000      1.00000000      1.00000000      1.00000000
      1.00000000      1.00000000      1.00000000      1.00000000</v>
    <i name="NUPDOWN">     -1.00000000</i>
    <i type="logical" name="LSORBIT"> F  </i>
    <v name="SAXIS">      0.00000000      0.00000000      1.00000000</v>
    <i type="logical" name="LSPIRAL"> F  </i>
    <v name="QSPIRAL">      0.00000000      0.00000000      0.00000000</v>
    <i type="logical" name="LZEROZ"> F  </i>
   </separator>
   <separator name="electronic exchange-correlation" >
    <i type="logical" name="LASPH"> F  </i>
    <i type="logical" name="LMETAGGA"> F  </i>
   </separator>
   <separator name="electronic convergence" >
    <i type="int" name="NELM">   300</i>
    <i type="int" name="NELMDL">   -12</i>
    <i type="int" name="NELMIN">     2</i>
    <i name="ENINI">    400.00000000</i>
    <separator name="electronic convergence detail" >
     <i type="logical" name="LDIAG"> T  </i>
     <i type="logical" name="LSUBROT"> F  </i>
     <i name="WEIMIN">      0.00000000</i>
     <i name="EBREAK">      0.00000024</i>
     <i name="DEPER">      0.30000000</i>
     <i type="int" name="NRMM">     4</i>
     <i name="TIME">      0.40000000</i>
    </separator>
   </separator>
   <separator name="electronic mixer" >
    <i name="AMIX">      0.40000000</i>
    <i name="BMIX">      1.00000000</i>
    <i name="AMIN">      0.10000000</i>
    <i name="AMIX_MAG">      1.60000000</i>
    <i name="BMIX_MAG">      1.00000000</i>
    <separator name="electronic mixer details" >
     <i type="int" name="IMIX">     4</i>
     <i type="int" name="MAXMIX">   -45</i>
     <i name="WC">    100.00000000</i>
     <i type="int" name="INIMIX">     1</i>
     <i type="int" name="MIXPRE">     1</i>
     <i type="int" name="MREMOVE">     5</i>
    </separator>
   </separator>
   <separator name="electronic dipolcorrection" >
    <i type="logical" name="LDIPOL"> F  </i>
    <i type="logical" name="LMONO"> F  </i>
    <i type="int" name="IDIPOL">     0</i>
    <i name="EPSILON">      1.00000000</i>
    <v name="DIPOL">   -100.00000000   -100.00000000   -100.00000000</v>
    <i name="EFIELD">      0.00000000</i>
   </separator>
  </separator>
  <separator name="grids" >
   <i type="int" name="NGX">    28</i>
   <i type="int" name="NGY">    24</i>
   <i type="int" name="NGZ">    54</i>
   <i type="int" name="NGXF">    56</i>
   <i type="int" name="NGYF">    48</i>
   <i type="int" name="NGZF">   108</i>
   <i type="logical" name="ADDGRID"> F  </i>
  </separator>
  <separator name="ionic" >
   <i type="int" name="NSW">     0</i>
   <i type="int" name="IBRION">    -1</i>
   <i type="int" name="ISIF">     2</i>
   <i name="PSTRESS">      0.00000000</i>
   <i name="EDIFFG">      0.00100000</i>
   <i type="int" name="NFREE">     0</i>
   <i name="POTIM">      0.50000000</i>
   <i name="SMASS">     -3.00000000</i>
   <i name="SCALEE">      1.00000000</i>
  </separator>
  <separator name="ionic md" >
   <i name="TEBEG">      0.00010000</i>
   <i name="TEEND">      0.00010000</i>
   <i type="int" name="NBLOCK">     1</i>
   <i type="int" name="KBLOCK">     1</i>
   <i type="int" name="NPACO">   256</i>
   <i name="APACO">     16.00000000</i>
  </separator>
  <separator name="symmetry" >
   <i type="int" name="ISYM">     0</i>
   <i name="SYMPREC">      0.00001000</i>
  </separator>
  <separator name="dos" >
   <i type="logical" name="LORBIT"> F  </i>
   <v name="RWIGS">     -1.00000000     -1.00000000     -1.00000000</v>
   <i type="int" name="NEDOS">   301</i>
   <i name="EMIN">     10.00000000</i>
   <i name="EMAX">    -10.00000000</i>
   <i name="EFERMI">      0.00000000</i>
  </separator>
  <separator name="writing" >
   <i type="int" name="NWRITE">     2</i>
   <i type="logical" name="LWAVE"> F  </i>
   <i type="logical" name="LCHARG"> T  </i>
   <i type="logical" name="LPARD"> F  </i>
   <i type="logical" name="LVTOT"> F  </i>
   <i type="logical" name="LVHAR"> F  </i>
   <i type="logical" name="LELF"> F  </i>
   <i type="logical" name="LOPTICS"> F  </i>
   <v name="STM">      0.00000000      0.00000000      0.00000000      0.00000000      0.00000000      0.00000000      0.00000000</v>
  </separator>
  <separator name="performance" >
   <i type="int" name="NPAR">     4</i>
   <i type="int" name="NSIM">     4</i>
   <i type="int" name="NBLK">    -1</i>
   <i type="logical" name="LPLANE"> T  </i>
   <i type="logical" name="LSCALAPACK"> T  </i>
   <i type="logical" name="LSCAAWARE"> F  </i>
   <i type="logical" name="LSCALU"> F  </i>
   <i type="logical" name="LASYNC"> F  </i>
   <i type="logical" name="LORBITALREAL"> F  </i>
  </separator>
  <separator name="miscellaneous" >
   <i type="int" name="IDIOT">     3</i>
   <i type="logical" name="LMUSIC"> F  </i>
   <v name="POMASS">     55.84700000     16.00000000     18.99800000</v>
   <v name="DARWINR">      0.00000000      0.00000000      0.00000000</v>
   <v name="DARWINV">      1.00000000      1.00000000      1.00000000</v>
   <i type="logical" name="LCORR"> T  </i>
  </separator>
  <i type="logical" name="GGA_COMPAT"> T  </i>
  <i type="logical" name="LBERRY"> F  </i>
  <i type="int" name="ICORELEVEL">     0</i>
  <i type="logical" name="LDAU"> F  </i>
  <i type="int" name="I_CONSTRAINED_M">     0</i>
  <separator name="electronic exchange-correlation" >
   <i type="string" name="GGA">--</i>
   <i type="int" name="VOSKOWN">     0</i>
   <i type="logical" name="LHFCALC"> F  </i>
   <i type="string" name="PRECFOCK"></i>
   <i type="logical" name="LSYMGRAD"> F  </i>
   <i type="logical" name="LHFONE"> F  </i>
   <i type="logical" name="LRHFCALC"> F  </i>
   <i type="logical" name="LTHOMAS"> F  </i>
   <i type="logical" name="LMODELHF"> F  </i>
   <i name="ENCUT4O">     -1.00000000</i>
   <i type="int" name="EXXOEP">     0</i>
   <i type="int" name="FOURORBIT">     0</i>
   <i name="AEXX">      0.00000000</i>
   <i name="HFALPHA">      0.00000000</i>
   <i name="MCALPHA">      0.00000000</i>
   <i name="ALDAX">      1.00000000</i>
   <i name="AGGAX">      1.00000000</i>
   <i name="ALDAC">      1.00000000</i>
   <i name="AGGAC">      1.00000000</i>
   <i type="int" name="NKREDX">     1</i>
   <i type="int" name="NKREDY">     1</i>
   <i type="int" name="NKREDZ">     1</i>
   <i type="logical" name="SHIFTRED"> F  </i>
   <i type="logical" name="ODDONLY"> F  </i>
   <i type="logical" name="EVENONLY"> F  </i>
   <i type="int" name="LMAXFOCK">     0</i>
   <i type="int" name="NMAXFOCKAE">     0</i>
   <i type="logical" name="LFOCKAEDFT"> F  </i>
   <i name="HFSCREEN">      0.00000000</i>
   <i name="HFSCREENC">      0.00000000</i>
   <i type="int" name="NBANDSGWLOW">     0</i>
  </separator>
  <separator name="vdW DFT" >
   <i type="logical" name="LUSE_VDW"> F  </i>
   <i name="Zab_VDW">     -0.84910000</i>
   <i name="PARAM1">      0.12340000</i>
   <i name="PARAM2">      1.00000000</i>
   <i name="PARAM3">      0.00000000</i>
  </separator>
  <separator name="model GW" >
   <i type="int" name="MODEL_GW">     0</i>
   <i name="MODEL_EPS0">      7.46882445</i>
   <i name="MODEL_ALPHA">      1.00000000</i>
  </separator>
  <separator name="linear response parameters" >
   <i type="logical" name="LEPSILON"> F  </i>
   <i type="logical" name="LRPA"> F  </i>
   <i type="logical" name="LNABLA"> F  </i>
   <i type="logical" name="LVEL"> F  </i>
   <i type="int" name="KINTER">     0</i>
   <i name="CSHIFT">      0.10000000</i>
   <i name="OMEGAMAX">     -1.00000000</i>
   <i name="DEG_THRESHOLD">      0.00200000</i>
  </separator>
  <separator name="orbital magnetization" >
   <i type="logical" name="NUCIND"> F  </i>
   <v name="MAGPOS">      0.00000000      0.00000000      0.00000000</v>
   <i type="logical" name="LNICSALL"> T  </i>
   <i type="logical" name="ORBITALMAG"> F  </i>
   <i type="logical" name="LMAGBLOCH"> F  </i>
   <i type="logical" name="LCHIMAG"> F  </i>
   <i type="logical" name="LGAUGE"> T  </i>
   <i type="int" name="MAGATOM">     0</i>
   <v name="MAGDIPOL">      0.00000000      0.00000000      0.00000000</v>
   <v name="AVECCONST">      0.00000000      0.00000000      0.00000000</v>
  </separator>
  <separator name="response functions" >
   <i type="logical" name="LADDER"> F  </i>
   <i type="logical" name="LFXC"> F  </i>
   <i type="logical" name="LHARTREE"> T  </i>
   <i type="int" name="IBSE">     0</i>
   <i type="logical" name="LTCTE"> F  </i>
   <i type="logical" name="LTETE"> F  </i>
   <i type="logical" name="LTRIPLET"> F  </i>
   <i type="logical" name="LFXCEPS"> F  </i>
   <i type="logical" name="LFXHEG"> F  </i>
   <i type="logical" name="L2ORDER"> F  </i>
   <i type="logical" name="LUSEW"> F  </i>
   <i name="ENCUTGW">     -2.00000000</i>
   <i name="ENCUTGWSOFT">     -2.00000000</i>
   <i name="ENCUTLF">     -1.00000000</i>
   <i type="int" name="LMAXMP2">    -1</i>
   <i name="SCISSOR">      0.00000000</i>
   <i type="int" name="NOMEGA">     0</i>
   <i type="int" name="NOMEGAR">     0</i>
   <i type="int" name="NBANDSGW">    -1</i>
   <i type="int" name="NBANDSO">    -1</i>
   <i type="int" name="NBANDSV">    -1</i>
   <i type="int" name="NELM">   300</i>
   <i type="int" name="DIM">     3</i>
   <i type="int" name="ANTIRES">     0</i>
   <i name="OMEGAMAX">    -30.00000000</i>
   <i name="OMEGAMIN">    -30.00000000</i>
   <i name="OMEGATL">   -200.00000000</i>
   <i type="int" name="OMEGAGRID">     0</i>
   <i name="CSHIFT">     -0.10000000</i>
   <i type="logical" name="SELFENERGY"> F  </i>
   <i type="logical" name="LSPECTRAL"> F  </i>
   <i type="logical" name="ODDONLYGW"> F  </i>
   <i type="logical" name="EVENONLYGW"> F  </i>
   <i type="int" name="NKREDLFX">     1</i>
   <i type="int" name="NKREDLFY">     1</i>
   <i type="int" name="NKREDLFZ">     1</i>
   <i type="int" name="MAXMEM">  1800</i>
   <i type="int" name="TELESCOPE">     0</i>
   <i type="int" name="TAUPAR">     1</i>
  </separator>
  <separator name="External order field" >
   <i name="OFIELD_KAPPA">      0.00000000</i>
   <v name="OFIELD_K">      0.00000000      0.00000000      0.00000000</v>
   <i name="OFIELD_Q6_NEAR">      0.00000000</i>
   <i name="OFIELD_Q6_FAR">      0.00000000</i>
   <i name="OFIELD_A">      0.00000000</i>
  </separator>
 </parameters>
 <atominfo>
  <atoms>      24 </atoms>
  <types>       3 </types>
  <array name="atoms" >
   <dimension dim="1">ion</dimension>
   <field type="string">element</field>
   <field type="int">atomtype</field>
   <set>
    <rc><c>Fe</c><c>   1</c></rc>
    <rc><c>Fe</c><c>   1</c></rc>
    <rc><c>Fe</c><c>   1</c></rc>
    <rc><c>Fe</c><c>   1</c></rc>
    <rc><c>Fe</c><c>   1</c></rc>
    <rc><c>Fe</c><c>   1</c></rc>
    <rc><c>Fe</c><c>   1</c></rc>
    <rc><c>Fe</c><c>   1</c></rc>
    <rc><c>O </c><c>   2</c></rc>
    <rc><c>O </c><c>   2</c></rc>
    <rc><c>F </c><c>   3</c></rc>
    <rc><c>F </c><c>   3</c></rc>
    <rc><c>F </c><c>   3</c></rc>
    <rc><c>F </c><c>   3</c></rc>
    <rc><c>F </c><c>   3</c></rc>
    <rc><c>F </c><c>   3</c></rc>
    <rc><c>F </c><c>   3</c></rc>
    <rc><c>F </c><c>   3</c></rc>
    <rc><c>F </c><c>   3</c></rc>
    <rc><c>F </c><c>   3</c></rc>
    <rc><c>F </c><c>   3</c></rc>
    <rc><c>F </c><c>   3</c></rc>
    <rc><c>F </c><c>   3</c></rc>
    <rc><c>F </c><c>   3</c></rc>
   </set>
  </array>
  <array name="atomtypes" >
   <dimension dim="1">type</dimension>
   <field type="int">atomspertype</field>
   <field type="string">element</field>
   <field>mass</field>
   <field>valence</field>
   <field type="string">pseudopotential</field>
   <set>
    <rc><c>   8</c><c>Fe</c><c>     55.84700000</c><c>      8.00000000</c><c>  PAW_PBE Fe 06Sep2000                  </c></rc>
    <rc><c>   2</c><c>O </c><c>     16.00000000</c><c>      6.00000000</c><c>  PAW_PBE O 08Apr2002                   </c></rc>
    <rc><c>  14</c><c>F </c><c>     18.99800000</c><c>      7.00000000</c><c>  PAW_PBE F 08Apr2002                   </c></rc>
   </set>
  </array>
 </atominfo>
 <structure name="initialpos" >
  <crystal>
   <varray name="basis" >
    <v>       5.73591900       0.00000000      -0.77069600 </v>
    <v>       0.00000000       4.78544200       0.00000000 </v>
    <v>       0.00000000       0.00000000      10.88396600 </v>
   </varray>
   <i name="volume">    298.75297805 </i>
   <varray name="rec_basis" >
    <v>       0.17433998       0.00000000       0.00000000 </v>
    <v>       0.00000000       0.20896711       0.00000000 </v>
    <v>       0.01234505       0.00000000       0.09187827 </v>
   </varray>
  </crystal>
  <varray name="positions" >
   <v>       0.24699400       0.24850600       0.74623300 </v>
   <v>       0.24699400       0.75149400       0.24691500 </v>
   <v>       0.51485700       0.24497600       0.49879200 </v>
   <v>       0.52369500       0.75502400       0.99879200 </v>
   <v>       0.75373900       0.23127500       0.26486200 </v>
   <v>       0.75373900       0.76872500       0.75768100 </v>
   <v>       0.99045900       0.24137200       0.99652900 </v>
   <v>       0.99045900       0.75862800       0.49652900 </v>
   <v>       0.77251900       0.05847800       0.41725200 </v>
   <v>       0.77857200       0.94152200       0.91725200 </v>
   <v>       0.01370000       0.05755600       0.18278600 </v>
   <v>       0.01370000       0.94244400       0.68278600 </v>
   <v>       0.22224900       0.44944100       0.57080400 </v>
   <v>       0.21511300       0.55637900       0.07080400 </v>
   <v>       0.27923300       0.05174700       0.92203700 </v>
   <v>       0.27923300       0.94825300       0.41543500 </v>
   <v>       0.48187500       0.45353000       0.31584000 </v>
   <v>       0.48187500       0.54647000       0.81584000 </v>
   <v>       0.52253600       0.03560000       0.67416600 </v>
   <v>       0.52253600       0.96440000       0.17416600 </v>
   <v>       0.72235300       0.44302000       0.09887200 </v>
   <v>       0.72235300       0.55698000       0.59109400 </v>
   <v>       0.97343300       0.45650500       0.81960400 </v>
   <v>       0.97343300       0.54349500       0.31960400 </v>
  </varray>
 </structure>
 <calculation>
  <scstep>
   <time name="diag">    0.21    0.36</time>
   <time name="diis">    0.17    0.22</time>
   <time name="orth">    0.10    0.11</time>
   <time name="total">    0.60    0.86</time>
   <energy>
    <i name="alphaZ">    634.09262729 </i>
    <i name="ewald"> -10603.06961070 </i>
    <i name="hartreedc">  -4399.45479040 </i>
    <i name="XCdc">    595.50672376 </i>
    <i name="pawpsdc">  12680.77512887 </i>
    <i name="pawaedc"> -12817.41364524 </i>
    <i name="eentropy">     -0.05263046 </i>
    <i name="bandstr">   1189.75648973 </i>
    <i name="atom">  14851.27451460 </i>
    <i name="e_fr_energy">   2131.41480742 </i>
    <i name="e_wo_entrp">   2131.46743789 </i>
    <i name="e_0_energy">   2131.43235091 </i>
   </energy>
  </scstep>
  <scstep>
   <time name="diag">    0.18    0.23</time>
   <time name="diis">    0.14    0.18</time>
   <time name="orth">    0.07    0.09</time>
   <time name="total">    0.39    0.51</time>
   <energy>
    <i name="e_fr_energy">    656.67222871 </i>
    <i name="e_wo_entrp">    656.65755956 </i>
    <i name="e_0_energy">    656.66733899 </i>
   </energy>
  </scstep>
  <scstep>
   <time name="diag">    0.24    0.33</time>
   <time name="diis">    0.13    0.17</time>
   <time name="orth">    0.02    0.02</time>
   <time name="total">    0.39    0.53</time>
   <energy>
    <i name="e_fr_energy">    225.06568548 </i>
    <i name="e_wo_entrp">    224.99373290 </i>
    <i name="e_0_energy">    225.04170128 </i>
   </energy>
  </scstep>
  <scstep>
   <time name="diag">    0.10    0.18</time>
   <time name="diis">    0.11    0.18</time>
   <time name="orth">    0.24    0.28</time>
   <time name="total">    0.45    0.64</time>
   <energy>
    <i name="e_fr_energy">     45.30958490 </i>
    <i name="e_wo_entrp">     45.23175102 </i>
    <i name="e_0_energy">     45.28364028 </i>
   </energy>
  </scstep>
  <scstep>
   <time name="diag">    0.09    0.10</time>
   <time name="diis">    0.09    0.18</time>
   <time name="orth">    0.01    0.02</time>
   <time name="total">    0.19    0.30</time>
   <energy>
    <i name="e_fr_energy">    -59.64537057 </i>
    <i name="e_wo_entrp">    -59.58061542 </i>
    <i name="e_0_energy">    -59.62378552 </i>
   </energy>
  </scstep>
  <scstep>
   <time name="diag">    0.04    0.07</time>
   <time name="diis">    0.11    0.24</time>
   <time name="orth">    0.03    0.03</time>
   <time name="total">    0.18    0.34</time>
   <energy>
    <i name="e_fr_energy">   -109.31984471 </i>
    <i name="e_wo_entrp">   -109.28490233 </i>
    <i name="e_0_energy">   -109.30819725 </i>
   </energy>
  </scstep>
  <scstep>
   <time name="diag">    0.08    0.08</time>
   <time name="diis">    0.17    0.22</time>
   <time name="orth">    0.10    0.20</time>
   <time name="total">    0.36    0.51</time>
   <energy>
    <i name="e_fr_energy">   -134.65649169 </i>
    <i name="e_wo_entrp">   -134.64700666 </i>
    <i name="e_0_energy">   -134.65333002 </i>
   </energy>
  </scstep>
  <scstep>
   <time name="diag">    0.18    0.36</time>
   <time name="diis">    0.11    0.18</time>
   <time name="orth">    0.02    0.02</time>
   <time name="total">    0.31    0.56</time>
   <energy>
    <i name="e_fr_energy">   -145.13237875 </i>
    <i name="e_wo_entrp">   -145.14023090 </i>
    <i name="e_0_energy">   -145.13499613 </i>
   </energy>
  </scstep>
  <scstep>
   <time name="diag">    0.17    0.29</time>
   <time name="diis">    0.46    0.56</time>
   <time name="orth">    0.05    0.10</time>
   <time name="total">    0.68    0.95</time>
   <energy>
    <i name="e_fr_energy">   -155.54570128 </i>
    <i name="e_wo_entrp">   -155.58251227 </i>
    <i name="e_0_energy">   -155.55797161 </i>
   </energy>
  </scstep>
  <scstep>
   <time name="diag">    0.06    0.10</time>
   <time name="diis">    0.40    0.52</time>
   <time name="orth">    0.01    0.02</time>
   <time name="total">    0.47    0.64</time>
   <energy>
    <i name="e_fr_energy">   -155.83572317 </i>
    <i name="e_wo_entrp">   -155.87911834 </i>
    <i name="e_0_energy">   -155.85018823 </i>
   </energy>
  </scstep>
  <scstep>
   <time name="diag">    0.04    0.05</time>
   <time name="diis">    0.42    0.48</time>
   <time name="orth">    0.11    0.15</time>
   <time name="total">    0.57    0.68</time>
   <energy>
    <i name="e_fr_energy">   -155.97709019 </i>
    <i name="e_wo_entrp">   -156.01134718 </i>
    <i name="e_0_energy">   -155.98850919 </i>
   </energy>
  </scstep>
  <scstep>
   <time name="diag">    0.18    0.19</time>
   <time name="diis">    0.32    0.40</time>
   <time name="orth">    0.15    0.18</time>
   <time name="total">    0.71    0.82</time>
   <energy>
    <i name="e_fr_energy">   -156.05135179 </i>
    <i name="e_wo_entrp">   -156.07895310 </i>
    <i name="e_0_energy">   -156.06055223 </i>
   </energy>
  </scstep>
  <scstep>
   <time name="diag">    0.06    0.06</time>
   <time name="diis">    0.31    0.46</time>
   <time name="orth">    0.20    0.28</time>
   <time name="total">    0.74    1.02</time>
   <energy>
    <i name="e_fr_energy">   -150.41552040 </i>
    <i name="e_wo_entrp">   -150.45942291 </i>
    <i name="e_0_energy">   -150.43015457 </i>
   </energy>
  </scstep>
  <scstep>
   <time name="diag">    0.09    0.13</time>
   <time name="diis">    0.24    0.39</time>
   <time name="orth">    0.14    0.19</time>
   <time name="total">    0.57    0.84</time>
   <energy>
    <i name="e_fr_energy">   -181.92618023 </i>
    <i name="e_wo_entrp">   -181.86784701 </i>
    <i name="e_0_energy">   -181.90673582 </i>
   </energy>
  </scstep>
  <scstep>
   <time name="diag">    0.11    0.17</time>
   <time name="diis">    0.22    0.37</time>
   <time name="orth">    0.09    0.12</time>
   <time name="total">    0.64    0.99</time>
   <energy>
    <i name="e_fr_energy">   -146.45980465 </i>
    <i name="e_wo_entrp">   -146.38008054 </i>
    <i name="e_0_energy">   -146.43322995 </i>
   </energy>
  </scstep>
  <scstep>
   <time name="diag">    0.09    0.11</time>
   <time name="diis">    0.27    0.38</time>
   <time name="orth">    0.24    0.35</time>
   <time name="total">    0.96    1.39</time>
   <energy>
    <i name="e_fr_energy">   -138.84569897 </i>
    <i name="e_wo_entrp">   -138.83396638 </i>
    <i name="e_0_energy">   -138.84178811 </i>
   </energy>
  </scstep>
  <scstep>
   <time name="diag">    0.10    0.14</time>
   <time name="diis">    0.26    0.36</time>
   <time name="orth">    0.02    0.02</time>
   <time name="total">    0.49    0.64</time>
   <energy>
    <i name="e_fr_energy">   -151.64154782 </i>
    <i name="e_wo_entrp">   -151.60204225 </i>
    <i name="e_0_energy">   -151.62837930 </i>
   </energy>
  </scstep>
  <scstep>
   <time name="diag">    0.22    0.23</time>
   <time name="diis">    0.26    0.42</time>
   <time name="orth">    0.01    0.02</time>
   <time name="total">    0.66    0.94</time>
   <energy>
    <i name="e_fr_energy">   -151.04421425 </i>
    <i name="e_wo_entrp">   -150.99133085 </i>
    <i name="e_0_energy">   -151.02658645 </i>
   </energy>
  </scstep>
  <scstep>
   <time name="diag">    0.08    0.08</time>
   <time name="diis">    0.28    0.43</time>
   <time name="orth">    0.04    0.04</time>
   <time name="total">    0.72    0.97</time>
   <energy>
    <i name="e_fr_energy">   -142.56736120 </i>
    <i name="e_wo_entrp">   -142.50162038 </i>
    <i name="e_0_energy">   -142.54544759 </i>
   </energy>
  </scstep>
  <scstep>
   <time name="diag">    0.38    0.56</time>
   <time name="diis">    0.28    0.47</time>
   <time name="orth">    0.11    0.11</time>
   <time name="total">    0.96    1.43</time>
   <energy>
    <i name="e_fr_energy">   -148.23538444 </i>
    <i name="e_wo_entrp">   -148.27566288 </i>
    <i name="e_0_energy">   -148.24881059 </i>
   </energy>
  </scstep>
  <scstep>
   <time name="diag">    0.07    0.13</time>
   <time name="diis">    0.26    0.34</time>
   <time name="orth">    0.02    0.02</time>
   <time name="total">    0.45    0.60</time>
   <energy>
    <i name="e_fr_energy">   -142.02369882 </i>
    <i name="e_wo_entrp">   -142.07366886 </i>
    <i name="e_0_energy">   -142.04035550 </i>
   </energy>
  </scstep>
  <scstep>
   <time name="diag">    0.07    0.10</time>
   <time name="diis">    0.28    0.35</time>
   <time name="orth">    0.17    0.28</time>
   <time name="total">    0.85    1.10</time>
   <energy>
    <i name="e_fr_energy">   -144.20964163 </i>
    <i name="e_wo_entrp">   -144.18031178 </i>
    <i name="e_0_energy">   -144.19986502 </i>
   </energy>
  </scstep>
  <scstep>
   <time name="diag">    0.07    0.07</time>
   <time name="diis">    0.22    0.38</time>
   <time name="orth">    0.04    0.07</time>
   <time name="total">    0.47    0.71</time>
   <energy>
    <i name="e_fr_energy">   -134.31308637 </i>
    <i name="e_wo_entrp">   -134.28609105 </i>
    <i name="e_0_energy">   -134.30408793 </i>
   </energy>
  </scstep>
  <scstep>
   <time name="diag">    0.24    0.24</time>
   <time name="diis">    0.25    0.37</time>
   <time name="orth">    0.02    0.02</time>
   <time name="total">    0.74    0.99</time>
   <energy>
    <i name="e_fr_energy">   -133.50462538 </i>
    <i name="e_wo_entrp">   -133.50852819 </i>
    <i name="e_0_energy">   -133.50592632 </i>
   </energy>
  </scstep>
  <scstep>
   <time name="diag">    0.05    0.09</time>
   <time name="diis">    0.40    0.47</time>
   <time name="orth">    0.11    0.18</time>
   <time name="total">    0.69    0.91</time>
   <energy>
    <i name="e_fr_energy">   -133.02223076 </i>
    <i name="e_wo_entrp">   -132.99080145 </i>
    <i name="e_0_energy">   -133.01175432 </i>
   </energy>
  </scstep>
  <scstep>
   <time name="diag">    0.21    0.29</time>
   <time name="diis">    0.27    0.37</time>
   <time name="orth">    0.01    0.01</time>
   <time name="total">    0.77    1.10</time>
   <energy>
    <i name="e_fr_energy">   -132.33001479 </i>
    <i name="e_wo_entrp">   -132.30456497 </i>
    <i name="e_0_energy">   -132.32153152 </i>
   </energy>
  </scstep>
  <scstep>
   <time name="diag">    0.10    0.14</time>
   <time name="diis">    0.28    0.48</time>
   <time name="orth">    0.02    0.02</time>
   <time name="total">    0.51    0.77</time>
   <energy>
    <i name="e_fr_energy">   -132.26027918 </i>
    <i name="e_wo_entrp">   -132.25671073 </i>
    <i name="e_0_energy">   -132.25908969 </i>
   </energy>
  </scstep>
  <scstep>
   <time name="diag">    0.03    0.06</time>
   <time name="diis">    0.28    0.43</time>
   <time name="orth">    0.01    0.01</time>
   <time name="total">    0.44    0.67</time>
   <energy>
    <i name="e_fr_energy">   -132.22453180 </i>
    <i name="e_wo_entrp">   -132.20741548 </i>
    <i name="e_0_energy">   -132.21882636 </i>
   </energy>
  </scstep>
  <scstep>
   <time name="diag">    0.06    0.08</time>
   <time name="diis">    0.31    0.43</time>
   <time name="orth">    0.03    0.04</time>
   <time name="total">    0.66    0.93</time>
   <energy>
    <i name="e_fr_energy">   -132.33352803 </i>
    <i name="e_wo_entrp">   -132.33804367 </i>
    <i name="e_0_energy">   -132.33503324 </i>
   </energy>
  </scstep>
  <scstep>
   <time name="diag">    0.05    0.09</time>
   <time name="diis">    0.25    0.36</time>
   <time name="orth">    0.03    0.06</time>
   <time name="total">    0.47    0.72</time>
   <energy>
    <i name="e_fr_energy">   -132.41500799 </i>
    <i name="e_wo_entrp">   -132.39641369 </i>
    <i name="e_0_energy">   -132.40880989 </i>
   </energy>
  </scstep>
  <scstep>
   <time name="diag">    0.05    0.08</time>
   <time name="diis">    0.24    0.39</time>
   <time name="orth">    0.01    0.01</time>
   <time name="total">    0.52    0.86</time>
   <energy>
    <i name="e_fr_energy">   -132.42380795 </i>
    <i name="e_wo_entrp">   -132.44837778 </i>
    <i name="e_0_energy">   -132.43199789 </i>
   </energy>
  </scstep>
  <scstep>
   <time name="diag">    0.09    0.10</time>
   <time name="diis">    0.20    0.34</time>
   <time name="orth">    0.04    0.07</time>
   <time name="total">    0.54    0.78</time>
   <energy>
    <i name="e_fr_energy">   -132.41963291 </i>
    <i name="e_wo_entrp">   -132.42862742 </i>
    <i name="e_0_energy">   -132.42263108 </i>
   </energy>
  </scstep>
  <scstep>
   <time name="diag">    0.06    0.09</time>
   <time name="diis">    0.26    0.33</time>
   <time name="orth">    0.02    0.04</time>
   <time name="total">    0.52    0.72</time>
   <energy>
    <i name="e_fr_energy">   -132.42728535 </i>
    <i name="e_wo_entrp">   -132.44692358 </i>
    <i name="e_0_energy">   -132.43383143 </i>
   </energy>
  </scstep>
  <scstep>
   <time name="diag">    0.15    0.31</time>
   <time name="diis">    0.19    0.33</time>
   <time name="orth">    0.02    0.02</time>
   <time name="total">    0.50    0.83</time>
   <energy>
    <i name="e_fr_energy">   -132.43061238 </i>
    <i name="e_wo_entrp">   -132.44996468 </i>
    <i name="e_0_energy">   -132.43706315 </i>
   </energy>
  </scstep>
  <scstep>
   <time name="diag">    0.04    0.08</time>
   <time name="diis">    0.22    0.46</time>
   <time name="orth">    0.01    0.02</time>
   <time name="total">    0.38    0.70</time>
   <energy>
    <i name="e_fr_energy">   -132.43826748 </i>
    <i name="e_wo_entrp">   -132.46300190 </i>
    <i name="e_0_energy">   -132.44651228 </i>
   </energy>
  </scstep>
  <scstep>
   <time name="diag">    0.19    0.35</time>
   <time name="diis">    0.24    0.29</time>
   <time name="orth">    0.08    0.16</time>
   <time name="total">    0.61    0.99</time>
   <energy>
    <i name="e_fr_energy">   -132.43934649 </i>
    <i name="e_wo_entrp">   -132.46270708 </i>
    <i name="e_0_energy">   -132.44713335 </i>
   </energy>
  </scstep>
  <scstep>
   <time name="diag">    0.06    0.06</time>
   <time name="diis">    0.18    0.30</time>
   <time name="orth">    0.04    0.04</time>
   <time name="total">    0.39    0.56</time>
   <energy>
    <i name="e_fr_energy">   -132.44287771 </i>
    <i name="e_wo_entrp">   -132.46887393 </i>
    <i name="e_0_energy">   -132.45154312 </i>
   </energy>
  </scstep>
  <scstep>
   <time name="diag">    0.07    0.11</time>
   <time name="diis">    0.24    0.29</time>
   <time name="orth">    0.01    0.01</time>
   <time name="total">    0.37    0.49</time>
   <energy>
    <i name="e_fr_energy">   -132.44431950 </i>
    <i name="e_wo_entrp">   -132.46939561 </i>
    <i name="e_0_energy">   -132.45267820 </i>
   </energy>
  </scstep>
  <scstep>
   <time name="diag">    0.04    0.04</time>
   <time name="diis">    0.17    0.23</time>
   <time name="orth">    0.21    0.30</time>
   <time name="total">    0.48    0.66</time>
   <energy>
    <i name="e_fr_energy">   -132.44645835 </i>
    <i name="e_wo_entrp">   -132.47288119 </i>
    <i name="e_0_energy">   -132.45526596 </i>
   </energy>
  </scstep>
  <scstep>
   <time name="diag">    0.06    0.06</time>
   <time name="diis">    0.14    0.21</time>
   <time name="orth">    0.03    0.04</time>
   <time name="total">    0.42    0.66</time>
   <energy>
    <i name="e_fr_energy">   -132.44778731 </i>
    <i name="e_wo_entrp">   -132.47381438 </i>
    <i name="e_0_energy">   -132.45646300 </i>
   </energy>
  </scstep>
  <scstep>
   <time name="diag">    0.10    0.15</time>
   <time name="diis">    0.14    0.19</time>
   <time name="orth">    0.01    0.02</time>
   <time name="total">    0.46    0.65</time>
   <energy>
    <i name="e_fr_energy">   -132.44902616 </i>
    <i name="e_wo_entrp">   -132.47580884 </i>
    <i name="e_0_energy">   -132.45795372 </i>
   </energy>
  </scstep>
  <scstep>
   <time name="diag">    0.05    0.08</time>
   <time name="diis">    0.16    0.19</time>
   <time name="orth">    0.02    0.02</time>
   <time name="total">    0.47    0.68</time>
   <energy>
    <i name="e_fr_energy">   -132.44933606 </i>
    <i name="e_wo_entrp">   -132.47549808 </i>
    <i name="e_0_energy">   -132.45805673 </i>
   </energy>
  </scstep>
  <scstep>
   <time name="diag">    0.06    0.07</time>
   <time name="diis">    0.18    0.20</time>
   <time name="orth">    0.05    0.06</time>
   <time name="total">    0.68    0.78</time>
   <energy>
    <i name="e_fr_energy">   -132.44974868 </i>
    <i name="e_wo_entrp">   -132.47642903 </i>
    <i name="e_0_energy">   -132.45864213 </i>
   </energy>
  </scstep>
  <scstep>
   <time name="diag">    0.15    0.23</time>
   <time name="diis">    0.15    0.19</time>
   <time name="orth">    0.01    0.02</time>
   <time name="total">    0.48    0.70</time>
   <energy>
    <i name="e_fr_energy">   -132.44997408 </i>
    <i name="e_wo_entrp">   -132.47626636 </i>
    <i name="e_0_energy">   -132.45873817 </i>
   </energy>
  </scstep>
  <scstep>
   <time name="diag">    0.18    0.18</time>
   <time name="diis">    0.14    0.23</time>
   <time name="orth">    0.01    0.02</time>
   <time name="total">    0.49    0.64</time>
   <energy>
    <i name="e_fr_energy">   -132.45015817 </i>
    <i name="e_wo_entrp">   -132.47686983 </i>
    <i name="e_0_energy">   -132.45906205 </i>
   </energy>
  </scstep>
  <scstep>
   <time name="diag">    0.07    0.07</time>
   <time name="diis">    0.13    0.20</time>
   <time name="orth">    0.02    0.02</time>
   <time name="total">    0.35    0.47</time>
   <energy>
    <i name="alphaZ">    634.09262729 </i>
    <i name="ewald"> -10603.06961070 </i>
    <i name="hartreedc">  -4478.23262018 </i>
    <i name="XCdc">    604.69844704 </i>
    <i name="pawpsdc">  14861.40267185 </i>
    <i name="pawaedc"> -15002.08195096 </i>
    <i name="eentropy">      0.02628362 </i>
    <i name="bandstr">  -1000.56051872 </i>
    <i name="atom">  14851.27451460 </i>
    <i name="e_fr_energy">   -132.45015617 </i>
    <i name="e_wo_entrp">   -132.47643979 </i>
    <i name="e_0_energy">   -132.45891738 </i>
   </energy>
  </scstep>
  <structure>
   <crystal>
    <varray name="basis" >
     <v>       5.73591900       0.00000000      -0.77069600 </v>
     <v>       0.00000000       4.78544200       0.00000000 </v>
     <v>       0.00000000       0.00000000      10.88396600 </v>
    </varray>
    <i name="volume">    298.75297805 </i>
    <varray name="rec_basis" >
     <v>       0.17433998       0.00000000       0.00000000 </v>
     <v>       0.00000000       0.20896711       0.00000000 </v>
     <v>       0.01234505       0.00000000       0.09187827 </v>
    </varray>
   </crystal>
   <varray name="positions" >
    <v>       0.24699400       0.24850600       0.74623300 </v>
    <v>       0.24699400       0.75149400       0.24691500 </v>
    <v>       0.51485700       0.24497600       0.49879200 </v>
    <v>       0.52369500       0.75502400       0.99879200 </v>
    <v>       0.75373900       0.23127500       0.26486200 </v>
    <v>       0.75373900       0.76872500       0.75768100 </v>
    <v>       0.99045900       0.24137200       0.99652900 </v>
    <v>       0.99045900       0.75862800       0.49652900 </v>
    <v>       0.77251900       0.05847800       0.41725200 </v>
    <v>       0.77857200       0.94152200       0.91725200 </v>
    <v>       0.01370000       0.05755600       0.18278600 </v>
    <v>       0.01370000       0.94244400       0.68278600 </v>
    <v>       0.22224900       0.44944100       0.57080400 </v>
    <v>       0.21511300       0.55637900       0.07080400 </v>
    <v>       0.27923300       0.05174700       0.92203700 </v>
    <v>       0.27923300       0.94825300       0.41543500 </v>
    <v>       0.48187500       0.45353000       0.31584000 </v>
    <v>       0.48187500       0.54647000       0.81584000 </v>
    <v>       0.52253600       0.03560000       0.67416600 </v>
    <v>       0.52253600       0.96440000       0.17416600 </v>
    <v>       0.72235300       0.44302000       0.09887200 </v>
    <v>       0.72235300       0.55698000       0.59109400 </v>
    <v>       0.97343300       0.45650500       0.81960400 </v>
    <v>       0.97343300       0.54349500       0.31960400 </v>
   </varray>
  </structure>
  <varray name="forces" >
   <v>       0.14253772      -0.03471379      -0.00333901 </v>
   <v>       0.13382337       0.03549759      -0.49414338 </v>
   <v>       0.88941109      -0.77732029      -1.03732614 </v>
   <v>       0.60521931       0.95114115      -0.83061837 </v>
   <v>      -0.01344028       0.29770778      -0.10157419 </v>
   <v>       0.00336824      -0.33907332       1.04271562 </v>
   <v>      -0.94181028      -1.28253367      -0.58235628 </v>
   <v>      -0.98947401       1.16936714      -0.79327600 </v>
   <v>      -0.21798714      -0.15109606       1.34965896 </v>
   <v>      -0.40574182       0.04036863       1.05052597 </v>
   <v>       0.29073570      -0.40227204       0.01860128 </v>
   <v>       0.32456377       0.39152732      -0.17718183 </v>
   <v>       0.09964487      -0.17192023       0.22390176 </v>
   <v>       0.22744779       0.03623041       0.26979435 </v>
   <v>      -0.16236616       0.32467002      -0.12085617 </v>
   <v>      -0.27437103      -0.24059264       0.33277538 </v>
   <v>      -0.25269856      -0.08015227       0.60810462 </v>
   <v>      -0.12557742       0.14191891       0.39586464 </v>
   <v>      -0.32896802       0.69174631      -0.02118099 </v>
   <v>      -0.27251268      -0.68322373       0.14586545 </v>
   <v>       0.22029758       0.07163710      -1.16100366 </v>
   <v>       0.23109168      -0.02809729      -0.90822585 </v>
   <v>       0.39258466      -0.36239550       0.24770455 </v>
   <v>       0.42422162       0.40157845       0.54556930 </v>
  </varray>
  <varray name="stress" >
   <v>    -242.06823493      -0.52740312      19.55110407 </v>
   <v>      -0.52740371    -259.65043265      -0.87890546 </v>
   <v>      19.55110221      -0.87890505    -290.16143255 </v>
  </varray>
  <energy>
   <i name="e_fr_energy">   -132.45015617 </i>
   <i name="e_wo_entrp">   -132.45891738 </i>
   <i name="e_0_energy">      0.02628362 </i>
  </energy>
  <time name="totalsc">   26.21   37.21</time>
  <eigenvalues>
   <array>
    <dimension dim="1">band</dimension>
    <dimension dim="2">kpoint</dimension>
    <dimension dim="3">spin</dimension>
    <field>eigene</field>
    <field>occ</field>
    <set>
     <set comment="spin 1">
      <set comment="kpoint 1">
       <r>  -22.7338    1.0000 </r>
       <r>  -22.6186    1.0000 </r>
       <r>  -22.4247    1.0000 </r>
       <r>  -22.3200    1.0000 </r>
       <r>  -22.2736    1.0000 </r>
       <r>  -22.2504    1.0000 </r>
       <r>  -22.1910    1.0000 </r>
       <r>  -22.1455    1.0000 </r>
       <r>  -22.1265    1.0000 </r>
       <r>  -22.0824    1.0000 </r>
       <r>  -22.0178    1.0000 </r>
       <r>  -21.9666    1.0000 </r>
       <r>  -21.8976    1.0000 </r>
       <r>  -21.7939    1.0000 </r>
       <r>  -16.7340    1.0000 </r>
       <r>  -16.5763    1.0000 </r>
       <r>   -6.1329    1.0000 </r>
       <r>   -5.7997    1.0000 </r>
       <r>   -5.3174    1.0000 </r>
       <r>   -5.2223    1.0000 </r>
       <r>   -5.2037    1.0000 </r>
       <r>   -5.1065    1.0000 </r>
       <r>   -5.0073    1.0000 </r>
       <r>   -4.8944    1.0000 </r>
       <r>   -4.8804    1.0000 </r>
       <r>   -4.7983    1.0000 </r>
       <r>   -4.7198    1.0000 </r>
       <r>   -4.6050    1.0000 </r>
       <r>   -4.5651    1.0000 </r>
       <r>   -4.5321    1.0000 </r>
       <r>   -4.4495    1.0000 </r>
       <r>   -4.4161    1.0000 </r>
       <r>   -4.3823    1.0000 </r>
       <r>   -4.3573    1.0000 </r>
       <r>   -4.2723    1.0000 </r>
       <r>   -4.2368    1.0000 </r>
       <r>   -4.1926    1.0000 </r>
       <r>   -4.1583    1.0000 </r>
       <r>   -4.0485    1.0000 </r>
       <r>   -4.0180    1.0000 </r>
       <r>   -3.9831    1.0000 </r>
       <r>   -3.9431    1.0000 </r>
       <r>   -3.8932    1.0000 </r>
       <r>   -3.8174    1.0000 </r>
       <r>   -3.7384    1.0000 </r>
       <r>   -3.6023    1.0000 </r>
       <r>   -3.3879    1.0000 </r>
       <r>   -3.3470    1.0000 </r>
       <r>   -3.3034    1.0000 </r>
       <r>   -3.1858    1.0000 </r>
       <r>   -3.1435    1.0000 </r>
       <r>   -2.9945    1.0000 </r>
       <r>   -2.9868    1.0000 </r>
       <r>   -2.9313    1.0000 </r>
       <r>   -2.8308    1.0000 </r>
       <r>   -2.7102    1.0000 </r>
       <r>   -2.6737    1.0000 </r>
       <r>   -2.6251    1.0000 </r>
       <r>   -2.5198    1.0000 </r>
       <r>   -2.4240    1.0000 </r>
       <r>   -2.3512    1.0000 </r>
       <r>   -2.2673    1.0000 </r>
       <r>   -1.5755    1.0000 </r>
       <r>   -1.4151    1.0000 </r>
       <r>    0.9142    1.0000 </r>
       <r>    0.9212    1.0000 </r>
       <r>    0.9968    1.0000 </r>
       <r>    1.0273    1.0001 </r>
       <r>    1.0390    1.0001 </r>
       <r>    1.0475    1.0002 </r>
       <r>    1.0730    1.0003 </r>
       <r>    1.1007    1.0006 </r>
       <r>    1.1754    1.0031 </r>
       <r>    1.1844    1.0037 </r>
       <r>    1.2464    1.0107 </r>
       <r>    1.2507    1.0114 </r>
       <r>    1.2986    1.0210 </r>
       <r>    1.3115    1.0239 </r>
       <r>    1.3522    1.0326 </r>
       <r>    1.4069    1.0328 </r>
       <r>    1.4166    1.0300 </r>
       <r>    1.4283    1.0248 </r>
       <r>    1.4644    0.9942 </r>
       <r>    1.5143    0.9048 </r>
       <r>    1.5339    0.8528 </r>
       <r>    1.5599    0.7695 </r>
       <r>    1.5806    0.6934 </r>
       <r>    1.6620    0.3571 </r>
       <r>    1.6661    0.3408 </r>
       <r>    1.8039   -0.0079 </r>
       <r>    1.8745   -0.0354 </r>
       <r>    1.9226   -0.0288 </r>
       <r>    1.9452   -0.0237 </r>
       <r>    2.0242   -0.0085 </r>
       <r>    2.0840   -0.0029 </r>
       <r>    2.1372   -0.0009 </r>
       <r>    2.4021   -0.0000 </r>
       <r>    2.4050   -0.0000 </r>
       <r>    2.7693   -0.0000 </r>
       <r>    2.8594   -0.0000 </r>
       <r>    2.9160   -0.0000 </r>
       <r>    2.9366   -0.0000 </r>
       <r>    3.0758   -0.0000 </r>
       <r>    3.2136   -0.0000 </r>
      </set>
     </set>
    </set>
   </array>
  </eigenvalues>
  <separator name="orbital magnetization" >
   <v name="MAGDIPOLOUT">      0.00000000      0.00000000      0.00000000</v>
  </separator>
  <dos>
   <i name="efermi">      1.62773118 </i>
   <total>
    <array>
     <dimension dim="1">gridpoints</dimension>
     <dimension dim="2">spin</dimension>
     <field>energy</field>
     <field>total</field>
     <field>integrated</field>
     <set>
      <set comment="spin 1">
       <r>   -24.7338     0.0000     0.0000 </r>
       <r>   -24.6340     0.0000     0.0000 </r>
       <r>   -24.5342     0.0000     0.0000 </r>
       <r>   -24.4344     0.0000     0.0000 </r>
       <r>   -24.3345    -0.0000    -0.0000 </r>
       <r>   -24.2347    -0.0000    -0.0000 </r>
       <r>   -24.1349    -0.0000    -0.0000 </r>
       <r>   -24.0351    -0.0000    -0.0000 </r>
       <r>   -23.9352    -0.0000    -0.0000 </r>
       <r>   -23.8354    -0.0000    -0.0000 </r>
       <r>   -23.7356    -0.0000    -0.0000 </r>
       <r>   -23.6358    -0.0000    -0.0000 </r>
       <r>   -23.5359    -0.0000    -0.0000 </r>
       <r>   -23.4361    -0.0001    -0.0000 </r>
       <r>   -23.3363    -0.0017    -0.0002 </r>
       <r>   -23.2365    -0.0212    -0.0023 </r>
       <r>   -23.1366    -0.1455    -0.0168 </r>
       <r>   -23.0368    -0.4915    -0.0659 </r>
       <r>   -22.9370    -0.3633    -0.1021 </r>
       <r>   -22.8372     2.6444     0.1618 </r>
       <r>   -22.7373     9.0480     1.0651 </r>
       <r>   -22.6375    13.2958     2.3923 </r>
       <r>   -22.5377    12.0804     3.5982 </r>
       <r>   -22.4379    12.9149     4.8875 </r>
       <r>   -22.3380    23.2960     7.2130 </r>
       <r>   -22.2382    38.4826    11.0545 </r>
       <r>   -22.1384    47.2780    15.7740 </r>
       <r>   -22.0386    44.7941    20.2456 </r>
       <r>   -21.9387    35.4044    23.7798 </r>
       <r>   -21.8389    24.6322    26.2387 </r>
       <r>   -21.7391    13.9647    27.6328 </r>
       <r>   -21.6393     4.8201    28.1139 </r>
       <r>   -21.5394     0.0099    28.1149 </r>
       <r>   -21.4396    -0.7668    28.0384 </r>
       <r>   -21.3398    -0.3168    28.0068 </r>
       <r>   -21.2400    -0.0608    28.0007 </r>
       <r>   -21.1401    -0.0064    28.0000 </r>
       <r>   -21.0403    -0.0004    28.0000 </r>
       <r>   -20.9405    -0.0000    28.0000 </r>
       <r>   -20.8407    -0.0000    28.0000 </r>
       <r>   -20.7408    -0.0000    28.0000 </r>
       <r>   -20.6410    -0.0000    28.0000 </r>
       <r>   -20.5412    -0.0000    28.0000 </r>
       <r>   -20.4414     0.0000    28.0000 </r>
       <r>   -20.3415     0.0000    28.0000 </r>
       <r>   -20.2417     0.0000    28.0000 </r>
       <r>   -20.1419     0.0000    28.0000 </r>
       <r>   -20.0421     0.0000    28.0000 </r>
       <r>   -19.9422     0.0000    28.0000 </r>
       <r>   -19.8424     0.0000    28.0000 </r>
       <r>   -19.7426     0.0000    28.0000 </r>
       <r>   -19.6428     0.0000    28.0000 </r>
       <r>   -19.5429     0.0000    28.0000 </r>
       <r>   -19.4431     0.0000    28.0000 </r>
       <r>   -19.3433     0.0000    28.0000 </r>
       <r>   -19.2435     0.0000    28.0000 </r>
       <r>   -19.1436     0.0000    28.0000 </r>
       <r>   -19.0438     0.0000    28.0000 </r>
       <r>   -18.9440     0.0000    28.0000 </r>
       <r>   -18.8442     0.0000    28.0000 </r>
       <r>   -18.7443     0.0000    28.0000 </r>
       <r>   -18.6445     0.0000    28.0000 </r>
       <r>   -18.5447     0.0000    28.0000 </r>
       <r>   -18.4449     0.0000    28.0000 </r>
       <r>   -18.3450    -0.0000    28.0000 </r>
       <r>   -18.2452    -0.0000    28.0000 </r>
       <r>   -18.1454    -0.0000    28.0000 </r>
       <r>   -18.0456    -0.0000    28.0000 </r>
       <r>   -17.9457    -0.0000    28.0000 </r>
       <r>   -17.8459    -0.0000    28.0000 </r>
       <r>   -17.7461    -0.0000    28.0000 </r>
       <r>   -17.6463    -0.0000    28.0000 </r>
       <r>   -17.5464    -0.0000    28.0000 </r>
       <r>   -17.4466    -0.0001    28.0000 </r>
       <r>   -17.3468    -0.0013    27.9999 </r>
       <r>   -17.2470    -0.0162    27.9983 </r>
       <r>   -17.1471    -0.1153    27.9867 </r>
       <r>   -17.0473    -0.4033    27.9465 </r>
       <r>   -16.9475    -0.3288    27.9137 </r>
       <r>   -16.8477     2.0944    28.1227 </r>
       <r>   -16.7478     7.5453    28.8759 </r>
       <r>   -16.6480    12.1825    30.0921 </r>
       <r>   -16.5482    11.7714    31.2671 </r>
       <r>   -16.4484     6.6934    31.9353 </r>
       <r>   -16.3485     1.5341    32.0884 </r>
       <r>   -16.2487    -0.4266    32.0459 </r>
       <r>   -16.1489    -0.3562    32.0103 </r>
       <r>   -16.0491    -0.0907    32.0012 </r>
       <r>   -15.9492    -0.0116    32.0001 </r>
       <r>   -15.8494    -0.0008    32.0000 </r>
       <r>   -15.7496    -0.0000    32.0000 </r>
       <r>   -15.6498    -0.0000    32.0000 </r>
       <r>   -15.5499    -0.0000    32.0000 </r>
       <r>   -15.4501    -0.0000    32.0000 </r>
       <r>   -15.3503    -0.0000    32.0000 </r>
       <r>   -15.2505     0.0000    32.0000 </r>
       <r>   -15.1506     0.0000    32.0000 </r>
       <r>   -15.0508     0.0000    32.0000 </r>
       <r>   -14.9510     0.0000    32.0000 </r>
       <r>   -14.8512     0.0000    32.0000 </r>
       <r>   -14.7513     0.0000    32.0000 </r>
       <r>   -14.6515     0.0000    32.0000 </r>
       <r>   -14.5517     0.0000    32.0000 </r>
       <r>   -14.4519     0.0000    32.0000 </r>
       <r>   -14.3520     0.0000    32.0000 </r>
       <r>   -14.2522     0.0000    32.0000 </r>
       <r>   -14.1524     0.0000    32.0000 </r>
       <r>   -14.0526     0.0000    32.0000 </r>
       <r>   -13.9527     0.0000    32.0000 </r>
       <r>   -13.8529     0.0000    32.0000 </r>
       <r>   -13.7531     0.0000    32.0000 </r>
       <r>   -13.6533     0.0000    32.0000 </r>
       <r>   -13.5535     0.0000    32.0000 </r>
       <r>   -13.4536     0.0000    32.0000 </r>
       <r>   -13.3538     0.0000    32.0000 </r>
       <r>   -13.2540     0.0000    32.0000 </r>
       <r>   -13.1542     0.0000    32.0000 </r>
       <r>   -13.0543     0.0000    32.0000 </r>
       <r>   -12.9545     0.0000    32.0000 </r>
       <r>   -12.8547     0.0000    32.0000 </r>
       <r>   -12.7549     0.0000    32.0000 </r>
       <r>   -12.6550     0.0000    32.0000 </r>
       <r>   -12.5552     0.0000    32.0000 </r>
       <r>   -12.4554     0.0000    32.0000 </r>
       <r>   -12.3556     0.0000    32.0000 </r>
       <r>   -12.2557     0.0000    32.0000 </r>
       <r>   -12.1559     0.0000    32.0000 </r>
       <r>   -12.0561     0.0000    32.0000 </r>
       <r>   -11.9563     0.0000    32.0000 </r>
       <r>   -11.8564     0.0000    32.0000 </r>
       <r>   -11.7566     0.0000    32.0000 </r>
       <r>   -11.6568     0.0000    32.0000 </r>
       <r>   -11.5570     0.0000    32.0000 </r>
       <r>   -11.4571     0.0000    32.0000 </r>
       <r>   -11.3573     0.0000    32.0000 </r>
       <r>   -11.2575     0.0000    32.0000 </r>
       <r>   -11.1577     0.0000    32.0000 </r>
       <r>   -11.0578     0.0000    32.0000 </r>
       <r>   -10.9580     0.0000    32.0000 </r>
       <r>   -10.8582     0.0000    32.0000 </r>
       <r>   -10.7584     0.0000    32.0000 </r>
       <r>   -10.6585     0.0000    32.0000 </r>
       <r>   -10.5587     0.0000    32.0000 </r>
       <r>   -10.4589     0.0000    32.0000 </r>
       <r>   -10.3591     0.0000    32.0000 </r>
       <r>   -10.2592     0.0000    32.0000 </r>
       <r>   -10.1594     0.0000    32.0000 </r>
       <r>   -10.0596     0.0000    32.0000 </r>
       <r>    -9.9598     0.0000    32.0000 </r>
       <r>    -9.8599     0.0000    32.0000 </r>
       <r>    -9.7601     0.0000    32.0000 </r>
       <r>    -9.6603     0.0000    32.0000 </r>
       <r>    -9.5605     0.0000    32.0000 </r>
       <r>    -9.4606     0.0000    32.0000 </r>
       <r>    -9.3608     0.0000    32.0000 </r>
       <r>    -9.2610     0.0000    32.0000 </r>
       <r>    -9.1612     0.0000    32.0000 </r>
       <r>    -9.0613     0.0000    32.0000 </r>
       <r>    -8.9615     0.0000    32.0000 </r>
       <r>    -8.8617     0.0000    32.0000 </r>
       <r>    -8.7619     0.0000    32.0000 </r>
       <r>    -8.6620     0.0000    32.0000 </r>
       <r>    -8.5622     0.0000    32.0000 </r>
       <r>    -8.4624     0.0000    32.0000 </r>
       <r>    -8.3626     0.0000    32.0000 </r>
       <r>    -8.2627     0.0000    32.0000 </r>
       <r>    -8.1629     0.0000    32.0000 </r>
       <r>    -8.0631     0.0000    32.0000 </r>
       <r>    -7.9633     0.0000    32.0000 </r>
       <r>    -7.8634     0.0000    32.0000 </r>
       <r>    -7.7636    -0.0000    32.0000 </r>
       <r>    -7.6638    -0.0000    32.0000 </r>
       <r>    -7.5640    -0.0000    32.0000 </r>
       <r>    -7.4641    -0.0000    32.0000 </r>
       <r>    -7.3643    -0.0000    32.0000 </r>
       <r>    -7.2645    -0.0000    32.0000 </r>
       <r>    -7.1647    -0.0000    32.0000 </r>
       <r>    -7.0648    -0.0000    32.0000 </r>
       <r>    -6.9650    -0.0000    32.0000 </r>
       <r>    -6.8652    -0.0000    32.0000 </r>
       <r>    -6.7654    -0.0007    31.9999 </r>
       <r>    -6.6655    -0.0101    31.9989 </r>
       <r>    -6.5657    -0.0801    31.9909 </r>
       <r>    -6.4659    -0.3119    31.9598 </r>
       <r>    -6.3661    -0.3007    31.9298 </r>
       <r>    -6.2662     1.7026    32.0997 </r>
       <r>    -6.1664     5.9545    32.6941 </r>
       <r>    -6.0666     7.6768    33.4605 </r>
       <r>    -5.9668     5.3819    33.9977 </r>
       <r>    -5.8669     5.3532    34.5321 </r>
       <r>    -5.7671     7.5956    35.2903 </r>
       <r>    -5.6673     5.6152    35.8509 </r>
       <r>    -5.5675     0.8039    35.9311 </r>
       <r>    -5.4676    -0.1746    35.9137 </r>
       <r>    -5.3678     6.5044    36.5630 </r>
       <r>    -5.2680    18.5369    38.4134 </r>
       <r>    -5.1682    26.3987    41.0487 </r>
       <r>    -5.0683    25.6386    43.6081 </r>
       <r>    -4.9685    24.2299    46.0268 </r>
       <r>    -4.8687    26.6637    48.6885 </r>
       <r>    -4.7689    27.2032    51.4041 </r>
       <r>    -4.6690    26.0937    54.0089 </r>
       <r>    -4.5692    30.4745    57.0510 </r>
       <r>    -4.4694    38.9388    60.9381 </r>
       <r>    -4.3696    44.1594    65.3463 </r>
       <r>    -4.2697    43.4527    69.6839 </r>
       <r>    -4.1699    39.7319    73.6502 </r>
       <r>    -4.0701    38.3038    77.4738 </r>
       <r>    -3.9703    40.2556    81.4923 </r>
       <r>    -3.8704    38.0681    85.2925 </r>
       <r>    -3.7706    28.8570    88.1731 </r>
       <r>    -3.6708    18.7235    90.0422 </r>
       <r>    -3.5710    11.9091    91.2310 </r>
       <r>    -3.4711    11.6836    92.3974 </r>
       <r>    -3.3713    19.5497    94.3489 </r>
       <r>    -3.2715    26.8098    97.0252 </r>
       <r>    -3.1717    26.7507    99.6956 </r>
       <r>    -3.0718    25.6890   102.2600 </r>
       <r>    -2.9720    27.7629   105.0314 </r>
       <r>    -2.8722    27.5889   107.7855 </r>
       <r>    -2.7724    25.4307   110.3241 </r>
       <r>    -2.6725    26.6831   112.9877 </r>
       <r>    -2.5727    27.2637   115.7093 </r>
       <r>    -2.4729    24.9583   118.2008 </r>
       <r>    -2.3731    23.7716   120.5738 </r>
       <r>    -2.2732    20.6949   122.6396 </r>
       <r>    -2.1734    12.0146   123.8390 </r>
       <r>    -2.0736     3.0723   124.1457 </r>
       <r>    -1.9738    -0.7471   124.0711 </r>
       <r>    -1.8739    -1.1053   123.9608 </r>
       <r>    -1.7741    -0.3575   123.9251 </r>
       <r>    -1.6743     2.7287   124.1975 </r>
       <r>    -1.5745     8.3478   125.0308 </r>
       <r>    -1.4746    12.3684   126.2655 </r>
       <r>    -1.3748    11.2118   127.3847 </r>
       <r>    -1.2750     5.9167   127.9753 </r>
       <r>    -1.1752     1.1148   128.0866 </r>
       <r>    -1.0753    -0.4720   128.0395 </r>
       <r>    -0.9755    -0.3135   128.0082 </r>
       <r>    -0.8757    -0.0728   128.0009 </r>
       <r>    -0.7759    -0.0087   128.0001 </r>
       <r>    -0.6760    -0.0006   128.0000 </r>
       <r>    -0.5762    -0.0000   128.0000 </r>
       <r>    -0.4764    -0.0000   128.0000 </r>
       <r>    -0.3766    -0.0000   128.0000 </r>
       <r>    -0.2767    -0.0000   128.0000 </r>
       <r>    -0.1769    -0.0000   128.0000 </r>
       <r>    -0.0771    -0.0000   128.0000 </r>
       <r>     0.0227    -0.0000   128.0000 </r>
       <r>     0.1226    -0.0000   128.0000 </r>
       <r>     0.2224    -0.0002   128.0000 </r>
       <r>     0.3222    -0.0044   127.9995 </r>
       <r>     0.4220    -0.0546   127.9941 </r>
       <r>     0.5219    -0.3834   127.9558 </r>
       <r>     0.6217    -1.4183   127.8142 </r>
       <r>     0.7215    -1.8357   127.6310 </r>
       <r>     0.8213     5.0629   128.1364 </r>
       <r>     0.9212    25.9992   130.7318 </r>
       <r>     1.0210    52.0567   135.9283 </r>
       <r>     1.1208    64.4286   142.3599 </r>
       <r>     1.2206    63.1511   148.6640 </r>
       <r>     1.3205    63.0150   154.9544 </r>
       <r>     1.4203    66.7122   161.6140 </r>
       <r>     1.5201    66.0009   168.2025 </r>
       <r>     1.6199    54.5659   173.6495 </r>
       <r>     1.7198    37.1256   177.3556 </r>
       <r>     1.8196    28.2071   180.1714 </r>
       <r>     1.9194    32.0718   183.3729 </r>
       <r>     2.0192    35.8497   186.9516 </r>
       <r>     2.1191    29.7074   189.9172 </r>
       <r>     2.2189    17.7284   191.6869 </r>
       <r>     2.3187    12.0816   192.8929 </r>
       <r>     2.4185    14.4588   194.3363 </r>
       <r>     2.5184    11.9522   195.5294 </r>
       <r>     2.6182     4.6547   195.9941 </r>
       <r>     2.7180     6.1673   196.6097 </r>
       <r>     2.8178    18.2122   198.4277 </r>
       <r>     2.9177    28.2007   201.2429 </r>
       <r>     3.0175    26.6552   203.9037 </r>
       <r>     3.1173    19.0229   205.8027 </r>
       <r>     3.2171    13.0855   207.1089 </r>
       <r>     3.3170     7.6525   207.8729 </r>
       <r>     3.4168     2.2403   208.0965 </r>
       <r>     3.5166    -0.3422   208.0623 </r>
       <r>     3.6164    -0.4622   208.0162 </r>
       <r>     3.7163    -0.1398   208.0022 </r>
       <r>     3.8161    -0.0207   208.0002 </r>
       <r>     3.9159    -0.0017   208.0000 </r>
       <r>     4.0157    -0.0001   208.0000 </r>
       <r>     4.1156    -0.0000   208.0000 </r>
       <r>     4.2154    -0.0000   208.0000 </r>
       <r>     4.3152    -0.0000   208.0000 </r>
       <r>     4.4150    -0.0000   208.0000 </r>
       <r>     4.5149    -0.0000   208.0000 </r>
       <r>     4.6147     0.0000   208.0000 </r>
       <r>     4.7145     0.0000   208.0000 </r>
       <r>     4.8143     0.0000   208.0000 </r>
       <r>     4.9142     0.0000   208.0000 </r>
       <r>     5.0140     0.0000   208.0000 </r>
       <r>     5.1138     0.0000   208.0000 </r>
       <r>     5.2136     0.0000   208.0000 </r>
      </set>
     </set>
    </array>
   </total>
  </dos>
 </calculation>
 <structure name="finalpos" >
  <crystal>
   <varray name="basis" >
    <v>       5.73591900       0.00000000      -0.77069600 </v>
    <v>       0.00000000       4.78544200       0.00000000 </v>
    <v>       0.00000000       0.00000000      10.88396600 </v>
   </varray>
   <i name="volume">    298.75297805 </i>
   <varray name="rec_basis" >
    <v>       0.17433998       0.00000000       0.00000000 </v>
    <v>       0.00000000       0.20896711       0.00000000 </v>
    <v>       0.01234505       0.00000000       0.09187827 </v>
   </varray>
  </crystal>
  <varray name="positions" >
   <v>       0.24699400       0.24850600       0.74623300 </v>
   <v>       0.24699400       0.75149400       0.24691500 </v>
   <v>       0.51485700       0.24497600       0.49879200 </v>
   <v>       0.52369500       0.75502400       0.99879200 </v>
   <v>       0.75373900       0.23127500       0.26486200 </v>
   <v>       0.75373900       0.76872500       0.75768100 </v>
   <v>       0.99045900       0.24137200       0.99652900 </v>
   <v>       0.99045900       0.75862800       0.49652900 </v>
   <v>       0.77251900       0.05847800       0.41725200 </v>
   <v>       0.77857200       0.94152200       0.91725200 </v>
   <v>       0.01370000       0.05755600       0.18278600 </v>
   <v>       0.01370000       0.94244400       0.68278600 </v>
   <v>       0.22224900       0.44944100       0.57080400 </v>
   <v>       0.21511300       0.55637900       0.07080400 </v>
   <v>       0.27923300       0.05174700       0.92203700 </v>
   <v>       0.27923300       0.94825300       0.41543500 </v>
   <v>       0.48187500       0.45353000       0.31584000 </v>
   <v>       0.48187500       0.54647000       0.81584000 </v>
   <v>       0.52253600       0.03560000       0.67416600 </v>
   <v>       0.52253600       0.96440000       0.17416600 </v>
   <v>       0.72235300       0.44302000       0.09887200 </v>
   <v>       0.72235300       0.55698000       0.59109400 </v>
   <v>       0.97343300       0.45650500       0.81960400 </v>
   <v>       0.97343300       0.54349500       0.31960400 </v>
  </varray>
 </structure>
</modeling>
