<?xml version="1.0" encoding="ISO-8859-1"?>
<modeling>
 <generator>
  <i name="program" type="string">vasp </i>
  <i name="version" type="string">5.3.5  </i>
  <i name="subversion" type="string">31Mar14 (build Aug 29 2014 19:41:47) complex                          parallel </i>
  <i name="platform" type="string">LinuxIFC </i>
  <i name="date" type="string">2019 04 11 </i>
  <i name="time" type="string">13:02:42 </i>
 </generator>
 <incar>
  <i type="string" name="SYSTEM"> Fe4OF7_var_28</i>
  <i type="int" name="ISTART">     0</i>
  <i type="string" name="PREC">normal</i>
  <i type="string" name="ALGO"> VeryFast</i>
  <i type="int" name="ISPIN">     1</i>
  <i type="int" name="ICHARG">     2</i>
  <i type="int" name="NELM">   300</i>
  <i type="int" name="ISYM">     0</i>
  <i type="logical" name="LWAVE"> F  </i>
  <i type="int" name="NELM">   300</i>
 </incar>
 <kpoints>
  <generation param="Gamma">
   <v type="int" name="divisions">       1        1        1 </v>
   <v name="usershift">      0.00000000       0.00000000       0.00000000 </v>
   <v name="genvec1">      1.00000000       0.00000000       0.00000000 </v>
   <v name="genvec2">      0.00000000       1.00000000       0.00000000 </v>
   <v name="genvec3">     -0.00000000       0.00000000       1.00000000 </v>
   <v name="shift">      0.00000000       0.00000000       0.00000000 </v>
  </generation>
  <varray name="kpointlist" >
   <v>       0.00000000       0.00000000       0.00000000 </v>
  </varray>
  <varray name="weights" >
   <v>       1.00000000 </v>
  </varray>
 </kpoints>
 <parameters>
  <separator name="general" >
   <i type="string" name="SYSTEM">Fe4OF7_var_28</i>
   <i type="logical" name="LCOMPAT"> F  </i>
  </separator>
  <separator name="electronic" >
   <i type="string" name="PREC">normal</i>
   <i name="ENMAX">    400.00000000</i>
   <i name="ENAUG">    613.61400000</i>
   <i name="EDIFF">      0.00010000</i>
   <i type="int" name="IALGO">    48</i>
   <i type="int" name="IWAVPR">    10</i>
   <i type="int" name="NBANDS">   104</i>
   <i name="NELECT">    174.00000000</i>
   <i type="int" name="TURBO">     0</i>
   <i type="int" name="IRESTART">     0</i>
   <i type="int" name="NREBOOT">     0</i>
   <i type="int" name="NMIN">     0</i>
   <i name="EREF">      0.00000000</i>
   <separator name="electronic smearing" >
    <i type="int" name="ISMEAR">     1</i>
    <i name="SIGMA">      0.20000000</i>
    <i name="KSPACING">      0.50000000</i>
    <i type="logical" name="KGAMMA"> T  </i>
   </separator>
   <separator name="electronic projectors" >
    <i type="logical" name="LREAL"> F  </i>
    <v name="ROPT">      0.00000000      0.00000000      0.00000000</v>
    <i type="int" name="LMAXPAW">  -100</i>
    <i type="int" name="LMAXMIX">     2</i>
    <i type="logical" name="NLSPLINE"> F  </i>
   </separator>
   <separator name="electronic startup" >
    <i type="int" name="ISTART">     0</i>
    <i type="int" name="ICHARG">     2</i>
    <i type="int" name="INIWAV">     1</i>
   </separator>
   <separator name="electronic spin" >
    <i type="int" name="ISPIN">     1</i>
    <i type="logical" name="LNONCOLLINEAR"> F  </i>
    <v name="MAGMOM">      1.00000000      1.00000000      1.00000000      1.00000000      1.00000000      1.00000000      1.00000000      1.00000000      1.00000000      1.00000000      1.00000000      1.00000000      1.00000000      1.00000000      1.00000000      1.00000000      1.00000000      1.00000000      1.00000000      1.00000000
      1.00000000      1.00000000      1.00000000      1.00000000</v>
    <i name="NUPDOWN">     -1.00000000</i>
    <i type="logical" name="LSORBIT"> F  </i>
    <v name="SAXIS">      0.00000000      0.00000000      1.00000000</v>
    <i type="logical" name="LSPIRAL"> F  </i>
    <v name="QSPIRAL">      0.00000000      0.00000000      0.00000000</v>
    <i type="logical" name="LZEROZ"> F  </i>
   </separator>
   <separator name="electronic exchange-correlation" >
    <i type="logical" name="LASPH"> F  </i>
    <i type="logical" name="LMETAGGA"> F  </i>
   </separator>
   <separator name="electronic convergence" >
    <i type="int" name="NELM">   300</i>
    <i type="int" name="NELMDL">   -12</i>
    <i type="int" name="NELMIN">     2</i>
    <i name="ENINI">    400.00000000</i>
    <separator name="electronic convergence detail" >
     <i type="logical" name="LDIAG"> T  </i>
     <i type="logical" name="LSUBROT"> F  </i>
     <i name="WEIMIN">      0.00000000</i>
     <i name="EBREAK">      0.00000024</i>
     <i name="DEPER">      0.30000000</i>
     <i type="int" name="NRMM">     4</i>
     <i name="TIME">      0.40000000</i>
    </separator>
   </separator>
   <separator name="electronic mixer" >
    <i name="AMIX">      0.40000000</i>
    <i name="BMIX">      1.00000000</i>
    <i name="AMIN">      0.10000000</i>
    <i name="AMIX_MAG">      1.60000000</i>
    <i name="BMIX_MAG">      1.00000000</i>
    <separator name="electronic mixer details" >
     <i type="int" name="IMIX">     4</i>
     <i type="int" name="MAXMIX">   -45</i>
     <i name="WC">    100.00000000</i>
     <i type="int" name="INIMIX">     1</i>
     <i type="int" name="MIXPRE">     1</i>
     <i type="int" name="MREMOVE">     5</i>
    </separator>
   </separator>
   <separator name="electronic dipolcorrection" >
    <i type="logical" name="LDIPOL"> F  </i>
    <i type="logical" name="LMONO"> F  </i>
    <i type="int" name="IDIPOL">     0</i>
    <i name="EPSILON">      1.00000000</i>
    <v name="DIPOL">   -100.00000000   -100.00000000   -100.00000000</v>
    <i name="EFIELD">      0.00000000</i>
   </separator>
  </separator>
  <separator name="grids" >
   <i type="int" name="NGX">    28</i>
   <i type="int" name="NGY">    24</i>
   <i type="int" name="NGZ">    54</i>
   <i type="int" name="NGXF">    56</i>
   <i type="int" name="NGYF">    48</i>
   <i type="int" name="NGZF">   108</i>
   <i type="logical" name="ADDGRID"> F  </i>
  </separator>
  <separator name="ionic" >
   <i type="int" name="NSW">     0</i>
   <i type="int" name="IBRION">    -1</i>
   <i type="int" name="ISIF">     2</i>
   <i name="PSTRESS">      0.00000000</i>
   <i name="EDIFFG">      0.00100000</i>
   <i type="int" name="NFREE">     0</i>
   <i name="POTIM">      0.50000000</i>
   <i name="SMASS">     -3.00000000</i>
   <i name="SCALEE">      1.00000000</i>
  </separator>
  <separator name="ionic md" >
   <i name="TEBEG">      0.00010000</i>
   <i name="TEEND">      0.00010000</i>
   <i type="int" name="NBLOCK">     1</i>
   <i type="int" name="KBLOCK">     1</i>
   <i type="int" name="NPACO">   256</i>
   <i name="APACO">     16.00000000</i>
  </separator>
  <separator name="symmetry" >
   <i type="int" name="ISYM">     0</i>
   <i name="SYMPREC">      0.00001000</i>
  </separator>
  <separator name="dos" >
   <i type="logical" name="LORBIT"> F  </i>
   <v name="RWIGS">     -1.00000000     -1.00000000     -1.00000000</v>
   <i type="int" name="NEDOS">   301</i>
   <i name="EMIN">     10.00000000</i>
   <i name="EMAX">    -10.00000000</i>
   <i name="EFERMI">      0.00000000</i>
  </separator>
  <separator name="writing" >
   <i type="int" name="NWRITE">     2</i>
   <i type="logical" name="LWAVE"> F  </i>
   <i type="logical" name="LCHARG"> T  </i>
   <i type="logical" name="LPARD"> F  </i>
   <i type="logical" name="LVTOT"> F  </i>
   <i type="logical" name="LVHAR"> F  </i>
   <i type="logical" name="LELF"> F  </i>
   <i type="logical" name="LOPTICS"> F  </i>
   <v name="STM">      0.00000000      0.00000000      0.00000000      0.00000000      0.00000000      0.00000000      0.00000000</v>
  </separator>
  <separator name="performance" >
   <i type="int" name="NPAR">     4</i>
   <i type="int" name="NSIM">     4</i>
   <i type="int" name="NBLK">    -1</i>
   <i type="logical" name="LPLANE"> T  </i>
   <i type="logical" name="LSCALAPACK"> T  </i>
   <i type="logical" name="LSCAAWARE"> F  </i>
   <i type="logical" name="LSCALU"> F  </i>
   <i type="logical" name="LASYNC"> F  </i>
   <i type="logical" name="LORBITALREAL"> F  </i>
  </separator>
  <separator name="miscellaneous" >
   <i type="int" name="IDIOT">     3</i>
   <i type="logical" name="LMUSIC"> F  </i>
   <v name="POMASS">     55.84700000     16.00000000     18.99800000</v>
   <v name="DARWINR">      0.00000000      0.00000000      0.00000000</v>
   <v name="DARWINV">      1.00000000      1.00000000      1.00000000</v>
   <i type="logical" name="LCORR"> T  </i>
  </separator>
  <i type="logical" name="GGA_COMPAT"> T  </i>
  <i type="logical" name="LBERRY"> F  </i>
  <i type="int" name="ICORELEVEL">     0</i>
  <i type="logical" name="LDAU"> F  </i>
  <i type="int" name="I_CONSTRAINED_M">     0</i>
  <separator name="electronic exchange-correlation" >
   <i type="string" name="GGA">--</i>
   <i type="int" name="VOSKOWN">     0</i>
   <i type="logical" name="LHFCALC"> F  </i>
   <i type="string" name="PRECFOCK"></i>
   <i type="logical" name="LSYMGRAD"> F  </i>
   <i type="logical" name="LHFONE"> F  </i>
   <i type="logical" name="LRHFCALC"> F  </i>
   <i type="logical" name="LTHOMAS"> F  </i>
   <i type="logical" name="LMODELHF"> F  </i>
   <i name="ENCUT4O">     -1.00000000</i>
   <i type="int" name="EXXOEP">     0</i>
   <i type="int" name="FOURORBIT">     0</i>
   <i name="AEXX">      0.00000000</i>
   <i name="HFALPHA">      0.00000000</i>
   <i name="MCALPHA">      0.00000000</i>
   <i name="ALDAX">      1.00000000</i>
   <i name="AGGAX">      1.00000000</i>
   <i name="ALDAC">      1.00000000</i>
   <i name="AGGAC">      1.00000000</i>
   <i type="int" name="NKREDX">     1</i>
   <i type="int" name="NKREDY">     1</i>
   <i type="int" name="NKREDZ">     1</i>
   <i type="logical" name="SHIFTRED"> F  </i>
   <i type="logical" name="ODDONLY"> F  </i>
   <i type="logical" name="EVENONLY"> F  </i>
   <i type="int" name="LMAXFOCK">     0</i>
   <i type="int" name="NMAXFOCKAE">     0</i>
   <i type="logical" name="LFOCKAEDFT"> F  </i>
   <i name="HFSCREEN">      0.00000000</i>
   <i name="HFSCREENC">      0.00000000</i>
   <i type="int" name="NBANDSGWLOW">     0</i>
  </separator>
  <separator name="vdW DFT" >
   <i type="logical" name="LUSE_VDW"> F  </i>
   <i name="Zab_VDW">     -0.84910000</i>
   <i name="PARAM1">      0.12340000</i>
   <i name="PARAM2">      1.00000000</i>
   <i name="PARAM3">      0.00000000</i>
  </separator>
  <separator name="model GW" >
   <i type="int" name="MODEL_GW">     0</i>
   <i name="MODEL_EPS0">      7.46882445</i>
   <i name="MODEL_ALPHA">      1.00000000</i>
  </separator>
  <separator name="linear response parameters" >
   <i type="logical" name="LEPSILON"> F  </i>
   <i type="logical" name="LRPA"> F  </i>
   <i type="logical" name="LNABLA"> F  </i>
   <i type="logical" name="LVEL"> F  </i>
   <i type="int" name="KINTER">     0</i>
   <i name="CSHIFT">      0.10000000</i>
   <i name="OMEGAMAX">     -1.00000000</i>
   <i name="DEG_THRESHOLD">      0.00200000</i>
  </separator>
  <separator name="orbital magnetization" >
   <i type="logical" name="NUCIND"> F  </i>
   <v name="MAGPOS">      0.00000000      0.00000000      0.00000000</v>
   <i type="logical" name="LNICSALL"> T  </i>
   <i type="logical" name="ORBITALMAG"> F  </i>
   <i type="logical" name="LMAGBLOCH"> F  </i>
   <i type="logical" name="LCHIMAG"> F  </i>
   <i type="logical" name="LGAUGE"> T  </i>
   <i type="int" name="MAGATOM">     0</i>
   <v name="MAGDIPOL">      0.00000000      0.00000000      0.00000000</v>
   <v name="AVECCONST">      0.00000000      0.00000000      0.00000000</v>
  </separator>
  <separator name="response functions" >
   <i type="logical" name="LADDER"> F  </i>
   <i type="logical" name="LFXC"> F  </i>
   <i type="logical" name="LHARTREE"> T  </i>
   <i type="int" name="IBSE">     0</i>
   <i type="logical" name="LTCTE"> F  </i>
   <i type="logical" name="LTETE"> F  </i>
   <i type="logical" name="LTRIPLET"> F  </i>
   <i type="logical" name="LFXCEPS"> F  </i>
   <i type="logical" name="LFXHEG"> F  </i>
   <i type="logical" name="L2ORDER"> F  </i>
   <i type="logical" name="LUSEW"> F  </i>
   <i name="ENCUTGW">     -2.00000000</i>
   <i name="ENCUTGWSOFT">     -2.00000000</i>
   <i name="ENCUTLF">     -1.00000000</i>
   <i type="int" name="LMAXMP2">    -1</i>
   <i name="SCISSOR">      0.00000000</i>
   <i type="int" name="NOMEGA">     0</i>
   <i type="int" name="NOMEGAR">     0</i>
   <i type="int" name="NBANDSGW">    -1</i>
   <i type="int" name="NBANDSO">    -1</i>
   <i type="int" name="NBANDSV">    -1</i>
   <i type="int" name="NELM">   300</i>
   <i type="int" name="DIM">     3</i>
   <i type="int" name="ANTIRES">     0</i>
   <i name="OMEGAMAX">    -30.00000000</i>
   <i name="OMEGAMIN">    -30.00000000</i>
   <i name="OMEGATL">   -200.00000000</i>
   <i type="int" name="OMEGAGRID">     0</i>
   <i name="CSHIFT">     -0.10000000</i>
   <i type="logical" name="SELFENERGY"> F  </i>
   <i type="logical" name="LSPECTRAL"> F  </i>
   <i type="logical" name="ODDONLYGW"> F  </i>
   <i type="logical" name="EVENONLYGW"> F  </i>
   <i type="int" name="NKREDLFX">     1</i>
   <i type="int" name="NKREDLFY">     1</i>
   <i type="int" name="NKREDLFZ">     1</i>
   <i type="int" name="MAXMEM">  1800</i>
   <i type="int" name="TELESCOPE">     0</i>
   <i type="int" name="TAUPAR">     1</i>
  </separator>
  <separator name="External order field" >
   <i name="OFIELD_KAPPA">      0.00000000</i>
   <v name="OFIELD_K">      0.00000000      0.00000000      0.00000000</v>
   <i name="OFIELD_Q6_NEAR">      0.00000000</i>
   <i name="OFIELD_Q6_FAR">      0.00000000</i>
   <i name="OFIELD_A">      0.00000000</i>
  </separator>
 </parameters>
 <atominfo>
  <atoms>      24 </atoms>
  <types>       3 </types>
  <array name="atoms" >
   <dimension dim="1">ion</dimension>
   <field type="string">element</field>
   <field type="int">atomtype</field>
   <set>
    <rc><c>Fe</c><c>   1</c></rc>
    <rc><c>Fe</c><c>   1</c></rc>
    <rc><c>Fe</c><c>   1</c></rc>
    <rc><c>Fe</c><c>   1</c></rc>
    <rc><c>Fe</c><c>   1</c></rc>
    <rc><c>Fe</c><c>   1</c></rc>
    <rc><c>Fe</c><c>   1</c></rc>
    <rc><c>Fe</c><c>   1</c></rc>
    <rc><c>O </c><c>   2</c></rc>
    <rc><c>O </c><c>   2</c></rc>
    <rc><c>F </c><c>   3</c></rc>
    <rc><c>F </c><c>   3</c></rc>
    <rc><c>F </c><c>   3</c></rc>
    <rc><c>F </c><c>   3</c></rc>
    <rc><c>F </c><c>   3</c></rc>
    <rc><c>F </c><c>   3</c></rc>
    <rc><c>F </c><c>   3</c></rc>
    <rc><c>F </c><c>   3</c></rc>
    <rc><c>F </c><c>   3</c></rc>
    <rc><c>F </c><c>   3</c></rc>
    <rc><c>F </c><c>   3</c></rc>
    <rc><c>F </c><c>   3</c></rc>
    <rc><c>F </c><c>   3</c></rc>
    <rc><c>F </c><c>   3</c></rc>
   </set>
  </array>
  <array name="atomtypes" >
   <dimension dim="1">type</dimension>
   <field type="int">atomspertype</field>
   <field type="string">element</field>
   <field>mass</field>
   <field>valence</field>
   <field type="string">pseudopotential</field>
   <set>
    <rc><c>   8</c><c>Fe</c><c>     55.84700000</c><c>      8.00000000</c><c>  PAW_PBE Fe 06Sep2000                  </c></rc>
    <rc><c>   2</c><c>O </c><c>     16.00000000</c><c>      6.00000000</c><c>  PAW_PBE O 08Apr2002                   </c></rc>
    <rc><c>  14</c><c>F </c><c>     18.99800000</c><c>      7.00000000</c><c>  PAW_PBE F 08Apr2002                   </c></rc>
   </set>
  </array>
 </atominfo>
 <structure name="initialpos" >
  <crystal>
   <varray name="basis" >
    <v>       5.73591900       0.00000000      -0.79026700 </v>
    <v>       0.00000000       4.78544200       0.00000000 </v>
    <v>       0.00000000       0.00000000      10.88396600 </v>
   </varray>
   <i name="volume">    298.75297805 </i>
   <varray name="rec_basis" >
    <v>       0.17433998       0.00000000       0.00000000 </v>
    <v>       0.00000000       0.20896711       0.00000000 </v>
    <v>       0.01265854       0.00000000       0.09187827 </v>
   </varray>
  </crystal>
  <varray name="positions" >
   <v>       0.24699400       0.24850600       0.74623300 </v>
   <v>       0.24699400       0.75149400       0.24623300 </v>
   <v>       0.51485700       0.24497600       0.49879200 </v>
   <v>       0.51485700       0.75502400       0.99879200 </v>
   <v>       0.75373900       0.23127500       0.26486200 </v>
   <v>       0.75373900       0.76872500       0.76756500 </v>
   <v>       0.99045900       0.24137200       0.99652900 </v>
   <v>       0.99045900       0.76663100       0.49652900 </v>
   <v>       0.77857200       0.05847800       0.41725200 </v>
   <v>       0.77857200       0.94152200       0.91725200 </v>
   <v>       0.01370000       0.05755600       0.18278600 </v>
   <v>       0.01370000       0.94244400       0.68278600 </v>
   <v>       0.22224900       0.44944100       0.56541100 </v>
   <v>       0.22224900       0.55055900       0.07080400 </v>
   <v>       0.27923300       0.05174700       0.92203700 </v>
   <v>       0.27923300       0.94825300       0.42203700 </v>
   <v>       0.48187500       0.45353000       0.31584000 </v>
   <v>       0.48187500       0.54647000       0.82423100 </v>
   <v>       0.52253600       0.03560000       0.67416600 </v>
   <v>       0.52253600       0.96440000       0.17416600 </v>
   <v>       0.72235300       0.44302000       0.09109400 </v>
   <v>       0.72235300       0.55698000       0.59109400 </v>
   <v>       0.97343300       0.45650500       0.81960400 </v>
   <v>       0.97343300       0.54349500       0.31960400 </v>
  </varray>
 </structure>
 <calculation>
  <scstep>
   <time name="diag">    0.31    0.45</time>
   <time name="diis">    0.09    0.15</time>
   <time name="orth">    0.05    0.08</time>
   <time name="total">    0.85    1.18</time>
   <energy>
    <i name="alphaZ">    634.09262729 </i>
    <i name="ewald"> -10614.38897546 </i>
    <i name="hartreedc">  -4388.07286649 </i>
    <i name="XCdc">    595.49741713 </i>
    <i name="pawpsdc">  12680.77512887 </i>
    <i name="pawaedc"> -12817.41364524 </i>
    <i name="eentropy">      0.00064961 </i>
    <i name="bandstr">   1174.06178228 </i>
    <i name="atom">  14851.27451460 </i>
    <i name="e_fr_energy">   2115.82663258 </i>
    <i name="e_wo_entrp">   2115.82598297 </i>
    <i name="e_0_energy">   2115.82641605 </i>
   </energy>
  </scstep>
  <scstep>
   <time name="diag">    0.06    0.06</time>
   <time name="diis">    0.19    0.23</time>
   <time name="orth">    0.04    0.08</time>
   <time name="total">    0.29    0.37</time>
   <energy>
    <i name="e_fr_energy">    653.61265277 </i>
    <i name="e_wo_entrp">    653.55546230 </i>
    <i name="e_0_energy">    653.59358928 </i>
   </energy>
  </scstep>
  <scstep>
   <time name="diag">    0.11    0.21</time>
   <time name="diis">    0.14    0.19</time>
   <time name="orth">    0.01    0.01</time>
   <time name="total">    0.26    0.41</time>
   <energy>
    <i name="e_fr_energy">    222.59141626 </i>
    <i name="e_wo_entrp">    222.65225982 </i>
    <i name="e_0_energy">    222.61169745 </i>
   </energy>
  </scstep>
  <scstep>
   <time name="diag">    0.21    0.34</time>
   <time name="diis">    0.09    0.17</time>
   <time name="orth">    0.01    0.02</time>
   <time name="total">    0.31    0.54</time>
   <energy>
    <i name="e_fr_energy">     38.17353460 </i>
    <i name="e_wo_entrp">     38.14103508 </i>
    <i name="e_0_energy">     38.16270143 </i>
   </energy>
  </scstep>
  <scstep>
   <time name="diag">    0.04    0.07</time>
   <time name="diis">    0.09    0.18</time>
   <time name="orth">    0.37    0.49</time>
   <time name="total">    0.50    0.75</time>
   <energy>
    <i name="e_fr_energy">    -66.07308888 </i>
    <i name="e_wo_entrp">    -66.04670831 </i>
    <i name="e_0_energy">    -66.06429536 </i>
   </energy>
  </scstep>
  <scstep>
   <time name="diag">    0.15    0.29</time>
   <time name="diis">    0.14    0.18</time>
   <time name="orth">    0.17    0.27</time>
   <time name="total">    0.46    0.75</time>
   <energy>
    <i name="e_fr_energy">   -112.57883374 </i>
    <i name="e_wo_entrp">   -112.56032476 </i>
    <i name="e_0_energy">   -112.57266408 </i>
   </energy>
  </scstep>
  <scstep>
   <time name="diag">    0.13    0.19</time>
   <time name="diis">    0.15    0.18</time>
   <time name="orth">    0.02    0.02</time>
   <time name="total">    0.29    0.39</time>
   <energy>
    <i name="e_fr_energy">   -136.21933402 </i>
    <i name="e_wo_entrp">   -136.24434172 </i>
    <i name="e_0_energy">   -136.22766992 </i>
   </energy>
  </scstep>
  <scstep>
   <time name="diag">    0.24    0.30</time>
   <time name="diis">    0.13    0.21</time>
   <time name="orth">    0.05    0.06</time>
   <time name="total">    0.42    0.57</time>
   <energy>
    <i name="e_fr_energy">   -145.83113059 </i>
    <i name="e_wo_entrp">   -145.86982393 </i>
    <i name="e_0_energy">   -145.84402837 </i>
   </energy>
  </scstep>
  <scstep>
   <time name="diag">    0.11    0.16</time>
   <time name="diis">    0.34    0.46</time>
   <time name="orth">    0.01    0.01</time>
   <time name="total">    0.47    0.63</time>
   <energy>
    <i name="e_fr_energy">   -155.45934812 </i>
    <i name="e_wo_entrp">   -155.51327165 </i>
    <i name="e_0_energy">   -155.47732263 </i>
   </energy>
  </scstep>
  <scstep>
   <time name="diag">    0.07    0.08</time>
   <time name="diis">    0.33    0.51</time>
   <time name="orth">    0.02    0.03</time>
   <time name="total">    0.42    0.62</time>
   <energy>
    <i name="e_fr_energy">   -155.65810468 </i>
    <i name="e_wo_entrp">   -155.69236255 </i>
    <i name="e_0_energy">   -155.66952397 </i>
   </energy>
  </scstep>
  <scstep>
   <time name="diag">    0.05    0.09</time>
   <time name="diis">    0.32    0.49</time>
   <time name="orth">    0.02    0.02</time>
   <time name="total">    0.39    0.60</time>
   <energy>
    <i name="e_fr_energy">   -155.86022202 </i>
    <i name="e_wo_entrp">   -155.88862861 </i>
    <i name="e_0_energy">   -155.86969088 </i>
   </energy>
  </scstep>
  <scstep>
   <time name="diag">    0.15    0.23</time>
   <time name="diis">    0.26    0.37</time>
   <time name="orth">    0.28    0.38</time>
   <time name="total">    0.74    1.09</time>
   <energy>
    <i name="e_fr_energy">   -155.99901673 </i>
    <i name="e_wo_entrp">   -156.03266905 </i>
    <i name="e_0_energy">   -156.01023417 </i>
   </energy>
  </scstep>
  <scstep>
   <time name="diag">    0.24    0.24</time>
   <time name="diis">    0.24    0.41</time>
   <time name="orth">    0.02    0.03</time>
   <time name="total">    0.64    0.91</time>
   <energy>
    <i name="e_fr_energy">   -149.03044986 </i>
    <i name="e_wo_entrp">   -149.10580983 </i>
    <i name="e_0_energy">   -149.05556985 </i>
   </energy>
  </scstep>
  <scstep>
   <time name="diag">    0.10    0.15</time>
   <time name="diis">    0.35    0.45</time>
   <time name="orth">    0.05    0.10</time>
   <time name="total">    0.59    0.85</time>
   <energy>
    <i name="e_fr_energy">   -180.71709132 </i>
    <i name="e_wo_entrp">   -180.71172599 </i>
    <i name="e_0_energy">   -180.71530288 </i>
   </energy>
  </scstep>
  <scstep>
   <time name="diag">    0.06    0.08</time>
   <time name="diis">    0.24    0.44</time>
   <time name="orth">    0.02    0.02</time>
   <time name="total">    0.41    0.65</time>
   <energy>
    <i name="e_fr_energy">   -138.48792655 </i>
    <i name="e_wo_entrp">   -138.36189452 </i>
    <i name="e_0_energy">   -138.44591587 </i>
   </energy>
  </scstep>
  <scstep>
   <time name="diag">    0.07    0.12</time>
   <time name="diis">    0.24    0.38</time>
   <time name="orth">    0.28    0.45</time>
   <time name="total">    0.69    1.08</time>
   <energy>
    <i name="e_fr_energy">   -148.00952351 </i>
    <i name="e_wo_entrp">   -147.99405913 </i>
    <i name="e_0_energy">   -148.00436872 </i>
   </energy>
  </scstep>
  <scstep>
   <time name="diag">    0.11    0.14</time>
   <time name="diis">    0.26    0.44</time>
   <time name="orth">    0.02    0.04</time>
   <time name="total">    0.48    0.71</time>
   <energy>
    <i name="e_fr_energy">   -152.73237525 </i>
    <i name="e_wo_entrp">   -152.78009279 </i>
    <i name="e_0_energy">   -152.74828109 </i>
   </energy>
  </scstep>
  <scstep>
   <time name="diag">    0.07    0.08</time>
   <time name="diis">    0.33    0.37</time>
   <time name="orth">    0.05    0.06</time>
   <time name="total">    0.60    0.73</time>
   <energy>
    <i name="e_fr_energy">   -139.14405174 </i>
    <i name="e_wo_entrp">   -139.18696514 </i>
    <i name="e_0_energy">   -139.15835620 </i>
   </energy>
  </scstep>
  <scstep>
   <time name="diag">    0.12    0.12</time>
   <time name="diis">    0.27    0.37</time>
   <time name="orth">    0.01    0.01</time>
   <time name="total">    0.55    0.72</time>
   <energy>
    <i name="e_fr_energy">   -144.41737351 </i>
    <i name="e_wo_entrp">   -144.50056532 </i>
    <i name="e_0_energy">   -144.44510411 </i>
   </energy>
  </scstep>
  <scstep>
   <time name="diag">    0.03    0.07</time>
   <time name="diis">    0.24    0.36</time>
   <time name="orth">    0.01    0.01</time>
   <time name="total">    0.48    0.70</time>
   <energy>
    <i name="e_fr_energy">   -142.04590378 </i>
    <i name="e_wo_entrp">   -141.95851371 </i>
    <i name="e_0_energy">   -142.01677376 </i>
   </energy>
  </scstep>
  <scstep>
   <time name="diag">    0.13    0.16</time>
   <time name="diis">    0.34    0.42</time>
   <time name="orth">    0.09    0.17</time>
   <time name="total">    0.80    1.03</time>
   <energy>
    <i name="e_fr_energy">   -141.43229486 </i>
    <i name="e_wo_entrp">   -141.42039739 </i>
    <i name="e_0_energy">   -141.42832904 </i>
   </energy>
  </scstep>
  <scstep>
   <time name="diag">    0.14    0.26</time>
   <time name="diis">    0.25    0.39</time>
   <time name="orth">    0.11    0.11</time>
   <time name="total">    0.69    1.07</time>
   <energy>
    <i name="e_fr_energy">   -134.38715573 </i>
    <i name="e_wo_entrp">   -134.27325843 </i>
    <i name="e_0_energy">   -134.34918996 </i>
   </energy>
  </scstep>
  <scstep>
   <time name="diag">    0.11    0.18</time>
   <time name="diis">    0.36    0.43</time>
   <time name="orth">    0.09    0.14</time>
   <time name="total">    0.76    0.98</time>
   <energy>
    <i name="e_fr_energy">   -133.75884416 </i>
    <i name="e_wo_entrp">   -133.78886798 </i>
    <i name="e_0_energy">   -133.76885210 </i>
   </energy>
  </scstep>
  <scstep>
   <time name="diag">    0.15    0.17</time>
   <time name="diis">    0.33    0.39</time>
   <time name="orth">    0.02    0.05</time>
   <time name="total">    0.62    0.81</time>
   <energy>
    <i name="e_fr_energy">   -132.83586875 </i>
    <i name="e_wo_entrp">   -132.81783213 </i>
    <i name="e_0_energy">   -132.82985654 </i>
   </energy>
  </scstep>
  <scstep>
   <time name="diag">    0.11    0.13</time>
   <time name="diis">    0.30    0.39</time>
   <time name="orth">    0.03    0.05</time>
   <time name="total">    0.57    0.79</time>
   <energy>
    <i name="e_fr_energy">   -133.02957432 </i>
    <i name="e_wo_entrp">   -133.07107121 </i>
    <i name="e_0_energy">   -133.04340662 </i>
   </energy>
  </scstep>
  <scstep>
   <time name="diag">    0.07    0.08</time>
   <time name="diis">    0.28    0.33</time>
   <time name="orth">    0.02    0.03</time>
   <time name="total">    0.50    0.61</time>
   <energy>
    <i name="e_fr_energy">   -132.55848859 </i>
    <i name="e_wo_entrp">   -132.55753514 </i>
    <i name="e_0_energy">   -132.55817077 </i>
   </energy>
  </scstep>
  <scstep>
   <time name="diag">    0.37    0.74</time>
   <time name="diis">    0.36    0.49</time>
   <time name="orth">    0.02    0.04</time>
   <time name="total">    0.82    1.43</time>
   <energy>
    <i name="e_fr_energy">   -132.43654619 </i>
    <i name="e_wo_entrp">   -132.41999473 </i>
    <i name="e_0_energy">   -132.43102904 </i>
   </energy>
  </scstep>
  <scstep>
   <time name="diag">    0.06    0.06</time>
   <time name="diis">    0.32    0.42</time>
   <time name="orth">    0.06    0.12</time>
   <time name="total">    0.54    0.71</time>
   <energy>
    <i name="e_fr_energy">   -132.43812827 </i>
    <i name="e_wo_entrp">   -132.42909905 </i>
    <i name="e_0_energy">   -132.43511853 </i>
   </energy>
  </scstep>
  <scstep>
   <time name="diag">    0.15    0.19</time>
   <time name="diis">    0.35    0.48</time>
   <time name="orth">    0.02    0.05</time>
   <time name="total">    0.66    0.87</time>
   <energy>
    <i name="e_fr_energy">   -132.54042744 </i>
    <i name="e_wo_entrp">   -132.55263680 </i>
    <i name="e_0_energy">   -132.54449723 </i>
   </energy>
  </scstep>
  <scstep>
   <time name="diag">    0.05    0.10</time>
   <time name="diis">    0.33    0.43</time>
   <time name="orth">    0.07    0.14</time>
   <time name="total">    0.61    0.90</time>
   <energy>
    <i name="e_fr_energy">   -132.56491624 </i>
    <i name="e_wo_entrp">   -132.58122449 </i>
    <i name="e_0_energy">   -132.57035233 </i>
   </energy>
  </scstep>
  <scstep>
   <time name="diag">    0.26    0.38</time>
   <time name="diis">    0.29    0.45</time>
   <time name="orth">    0.06    0.13</time>
   <time name="total">    0.72    1.10</time>
   <energy>
    <i name="e_fr_energy">   -132.54945747 </i>
    <i name="e_wo_entrp">   -132.56093339 </i>
    <i name="e_0_energy">   -132.55328278 </i>
   </energy>
  </scstep>
  <scstep>
   <time name="diag">    0.05    0.08</time>
   <time name="diis">    0.23    0.34</time>
   <time name="orth">    0.03    0.06</time>
   <time name="total">    0.50    0.83</time>
   <energy>
    <i name="e_fr_energy">   -132.54424150 </i>
    <i name="e_wo_entrp">   -132.56249831 </i>
    <i name="e_0_energy">   -132.55032710 </i>
   </energy>
  </scstep>
  <scstep>
   <time name="diag">    0.17    0.25</time>
   <time name="diis">    0.32    0.49</time>
   <time name="orth">    0.02    0.02</time>
   <time name="total">    0.66    0.98</time>
   <energy>
    <i name="e_fr_energy">   -132.53883039 </i>
    <i name="e_wo_entrp">   -132.55324621 </i>
    <i name="e_0_energy">   -132.54363566 </i>
   </energy>
  </scstep>
  <scstep>
   <time name="diag">    0.10    0.12</time>
   <time name="diis">    0.23    0.36</time>
   <time name="orth">    0.01    0.02</time>
   <time name="total">    0.44    0.65</time>
   <energy>
    <i name="e_fr_energy">   -132.53925834 </i>
    <i name="e_wo_entrp">   -132.55575004 </i>
    <i name="e_0_energy">   -132.54475557 </i>
   </energy>
  </scstep>
  <scstep>
   <time name="diag">    1.45    2.11</time>
   <time name="diis">    0.26    0.42</time>
   <time name="orth">    0.27    0.35</time>
   <time name="total">    2.15    3.13</time>
   <energy>
    <i name="e_fr_energy">   -132.53779693 </i>
    <i name="e_wo_entrp">   -132.55126265 </i>
    <i name="e_0_energy">   -132.54228550 </i>
   </energy>
  </scstep>
  <scstep>
   <time name="diag">    0.08    0.09</time>
   <time name="diis">    0.21    0.35</time>
   <time name="orth">    0.13    0.25</time>
   <time name="total">    0.65    1.02</time>
   <energy>
    <i name="e_fr_energy">   -132.53871524 </i>
    <i name="e_wo_entrp">   -132.55280233 </i>
    <i name="e_0_energy">   -132.54341093 </i>
   </energy>
  </scstep>
  <scstep>
   <time name="diag">    0.06    0.06</time>
   <time name="diis">    0.18    0.33</time>
   <time name="orth">    0.07    0.07</time>
   <time name="total">    0.62    0.96</time>
   <energy>
    <i name="e_fr_energy">   -132.53840687 </i>
    <i name="e_wo_entrp">   -132.55104874 </i>
    <i name="e_0_energy">   -132.54262083 </i>
   </energy>
  </scstep>
  <scstep>
   <time name="diag">    0.05    0.05</time>
   <time name="diis">    0.26    0.26</time>
   <time name="orth">    0.04    0.04</time>
   <time name="total">    0.64    0.66</time>
   <energy>
    <i name="e_fr_energy">   -132.53889833 </i>
    <i name="e_wo_entrp">   -132.55194245 </i>
    <i name="e_0_energy">   -132.54324637 </i>
   </energy>
  </scstep>
  <scstep>
   <time name="diag">    0.20    0.35</time>
   <time name="diis">    0.16    0.26</time>
   <time name="orth">    0.01    0.01</time>
   <time name="total">    0.50    0.90</time>
   <energy>
    <i name="alphaZ">    634.09262729 </i>
    <i name="ewald"> -10614.38897546 </i>
    <i name="hartreedc">  -4466.93511543 </i>
    <i name="XCdc">    604.70000464 </i>
    <i name="pawpsdc">  14872.22804669 </i>
    <i name="pawaedc"> -15012.93124656 </i>
    <i name="eentropy">      0.01256221 </i>
    <i name="bandstr">  -1000.59122409 </i>
    <i name="atom">  14851.27451460 </i>
    <i name="e_fr_energy">   -132.53880611 </i>
    <i name="e_wo_entrp">   -132.55136832 </i>
    <i name="e_0_energy">   -132.54299351 </i>
   </energy>
  </scstep>
  <structure>
   <crystal>
    <varray name="basis" >
     <v>       5.73591900       0.00000000      -0.79026700 </v>
     <v>       0.00000000       4.78544200       0.00000000 </v>
     <v>       0.00000000       0.00000000      10.88396600 </v>
    </varray>
    <i name="volume">    298.75297805 </i>
    <varray name="rec_basis" >
     <v>       0.17433998       0.00000000       0.00000000 </v>
     <v>       0.00000000       0.20896711       0.00000000 </v>
     <v>       0.01265854       0.00000000       0.09187827 </v>
    </varray>
   </crystal>
   <varray name="positions" >
    <v>       0.24699400       0.24850600       0.74623300 </v>
    <v>       0.24699400       0.75149400       0.24623300 </v>
    <v>       0.51485700       0.24497600       0.49879200 </v>
    <v>       0.51485700       0.75502400       0.99879200 </v>
    <v>       0.75373900       0.23127500       0.26486200 </v>
    <v>       0.75373900       0.76872500       0.76756500 </v>
    <v>       0.99045900       0.24137200       0.99652900 </v>
    <v>       0.99045900       0.76663100       0.49652900 </v>
    <v>       0.77857200       0.05847800       0.41725200 </v>
    <v>       0.77857200       0.94152200       0.91725200 </v>
    <v>       0.01370000       0.05755600       0.18278600 </v>
    <v>       0.01370000       0.94244400       0.68278600 </v>
    <v>       0.22224900       0.44944100       0.56541100 </v>
    <v>       0.22224900       0.55055900       0.07080400 </v>
    <v>       0.27923300       0.05174700       0.92203700 </v>
    <v>       0.27923300       0.94825300       0.42203700 </v>
    <v>       0.48187500       0.45353000       0.31584000 </v>
    <v>       0.48187500       0.54647000       0.82423100 </v>
    <v>       0.52253600       0.03560000       0.67416600 </v>
    <v>       0.52253600       0.96440000       0.17416600 </v>
    <v>       0.72235300       0.44302000       0.09109400 </v>
    <v>       0.72235300       0.55698000       0.59109400 </v>
    <v>       0.97343300       0.45650500       0.81960400 </v>
    <v>       0.97343300       0.54349500       0.31960400 </v>
   </varray>
  </structure>
  <varray name="forces" >
   <v>       0.12851963      -0.04443098      -0.11995714 </v>
   <v>       0.14535499       0.00221042      -0.24492957 </v>
   <v>       0.88333187      -0.63647217      -0.88470723 </v>
   <v>       0.87370914       0.70425124      -0.71782628 </v>
   <v>       0.16536691       0.31683274      -0.22999733 </v>
   <v>       0.12555923      -0.28085908      -0.51340870 </v>
   <v>      -0.86789252      -1.23473709      -0.65570064 </v>
   <v>      -0.89481576       0.97536102      -0.83493781 </v>
   <v>      -0.43858723      -0.15044363       1.48332246 </v>
   <v>      -0.39625820       0.29642707       1.55030308 </v>
   <v>       0.26934154      -0.38003749       0.01023871 </v>
   <v>       0.27949619       0.40815668      -0.01283849 </v>
   <v>       0.09009976      -0.16405995       0.59062194 </v>
   <v>       0.03431784       0.17852501       0.29916965 </v>
   <v>      -0.25877899       0.26781424      -0.03984132 </v>
   <v>      -0.24994137      -0.23546358      -0.04123873 </v>
   <v>      -0.23657959      -0.11207658       0.58103401 </v>
   <v>      -0.18646104       0.08234305       0.19087218 </v>
   <v>      -0.33163585       0.67790386       0.24577430 </v>
   <v>      -0.30783195      -0.67936124       0.15537903 </v>
   <v>       0.20585655       0.04655027      -0.87600459 </v>
   <v>       0.17402078      -0.03868350      -0.82560442 </v>
   <v>       0.39979775      -0.42527862       0.49203387 </v>
   <v>       0.39401032       0.42552831       0.39824302 </v>
  </varray>
  <varray name="stress" >
   <v>    -243.07525184       0.40970317      20.88176844 </v>
   <v>       0.40970355    -258.84731107       0.30201443 </v>
   <v>      20.88176946       0.30201567    -288.10538547 </v>
  </varray>
  <energy>
   <i name="e_fr_energy">   -132.53880611 </i>
   <i name="e_wo_entrp">   -132.54299351 </i>
   <i name="e_0_energy">      0.01256221 </i>
  </energy>
  <time name="totalsc">   24.98   36.10</time>
  <eigenvalues>
   <array>
    <dimension dim="1">band</dimension>
    <dimension dim="2">kpoint</dimension>
    <dimension dim="3">spin</dimension>
    <field>eigene</field>
    <field>occ</field>
    <set>
     <set comment="spin 1">
      <set comment="kpoint 1">
       <r>  -22.6671    1.0000 </r>
       <r>  -22.5879    1.0000 </r>
       <r>  -22.3562    1.0000 </r>
       <r>  -22.3149    1.0000 </r>
       <r>  -22.2954    1.0000 </r>
       <r>  -22.2609    1.0000 </r>
       <r>  -22.2192    1.0000 </r>
       <r>  -22.1694    1.0000 </r>
       <r>  -22.1457    1.0000 </r>
       <r>  -22.1236    1.0000 </r>
       <r>  -21.9396    1.0000 </r>
       <r>  -21.8590    1.0000 </r>
       <r>  -21.8373    1.0000 </r>
       <r>  -21.7400    1.0000 </r>
       <r>  -16.8265    1.0000 </r>
       <r>  -16.7787    1.0000 </r>
       <r>   -6.1047    1.0000 </r>
       <r>   -5.7479    1.0000 </r>
       <r>   -5.3455    1.0000 </r>
       <r>   -5.2027    1.0000 </r>
       <r>   -5.1799    1.0000 </r>
       <r>   -5.0238    1.0000 </r>
       <r>   -4.9796    1.0000 </r>
       <r>   -4.9087    1.0000 </r>
       <r>   -4.8507    1.0000 </r>
       <r>   -4.8046    1.0000 </r>
       <r>   -4.6959    1.0000 </r>
       <r>   -4.5659    1.0000 </r>
       <r>   -4.5597    1.0000 </r>
       <r>   -4.5344    1.0000 </r>
       <r>   -4.4007    1.0000 </r>
       <r>   -4.3701    1.0000 </r>
       <r>   -4.3252    1.0000 </r>
       <r>   -4.2966    1.0000 </r>
       <r>   -4.2699    1.0000 </r>
       <r>   -4.2202    1.0000 </r>
       <r>   -4.1883    1.0000 </r>
       <r>   -4.1573    1.0000 </r>
       <r>   -4.0397    1.0000 </r>
       <r>   -3.9924    1.0000 </r>
       <r>   -3.9852    1.0000 </r>
       <r>   -3.9127    1.0000 </r>
       <r>   -3.8706    1.0000 </r>
       <r>   -3.8593    1.0000 </r>
       <r>   -3.6953    1.0000 </r>
       <r>   -3.6246    1.0000 </r>
       <r>   -3.4548    1.0000 </r>
       <r>   -3.4331    1.0000 </r>
       <r>   -3.3548    1.0000 </r>
       <r>   -3.2816    1.0000 </r>
       <r>   -3.0616    1.0000 </r>
       <r>   -3.0183    1.0000 </r>
       <r>   -2.9707    1.0000 </r>
       <r>   -2.9579    1.0000 </r>
       <r>   -2.7860    1.0000 </r>
       <r>   -2.7439    1.0000 </r>
       <r>   -2.7090    1.0000 </r>
       <r>   -2.6698    1.0000 </r>
       <r>   -2.4628    1.0000 </r>
       <r>   -2.4398    1.0000 </r>
       <r>   -2.3741    1.0000 </r>
       <r>   -2.2686    1.0000 </r>
       <r>   -1.6575    1.0000 </r>
       <r>   -1.5985    1.0000 </r>
       <r>    0.9069    1.0000 </r>
       <r>    0.9276    1.0000 </r>
       <r>    0.9932    1.0000 </r>
       <r>    1.0031    1.0000 </r>
       <r>    1.0379    1.0001 </r>
       <r>    1.0451    1.0002 </r>
       <r>    1.0668    1.0003 </r>
       <r>    1.1041    1.0007 </r>
       <r>    1.1590    1.0023 </r>
       <r>    1.1820    1.0036 </r>
       <r>    1.2380    1.0095 </r>
       <r>    1.2596    1.0131 </r>
       <r>    1.2990    1.0213 </r>
       <r>    1.3059    1.0229 </r>
       <r>    1.3421    1.0309 </r>
       <r>    1.3884    1.0353 </r>
       <r>    1.4296    1.0236 </r>
       <r>    1.4355    1.0200 </r>
       <r>    1.4768    0.9761 </r>
       <r>    1.5081    0.9170 </r>
       <r>    1.5375    0.8392 </r>
       <r>    1.5544    0.7852 </r>
       <r>    1.5803    0.6911 </r>
       <r>    1.6602    0.3609 </r>
       <r>    1.6629    0.3499 </r>
       <r>    1.8056   -0.0103 </r>
       <r>    1.8802   -0.0352 </r>
       <r>    1.9317   -0.0265 </r>
       <r>    1.9582   -0.0205 </r>
       <r>    2.0355   -0.0069 </r>
       <r>    2.0934   -0.0024 </r>
       <r>    2.1236   -0.0012 </r>
       <r>    2.3464   -0.0000 </r>
       <r>    2.4503   -0.0000 </r>
       <r>    2.7896   -0.0000 </r>
       <r>    2.8345   -0.0000 </r>
       <r>    2.8878   -0.0000 </r>
       <r>    2.9426   -0.0000 </r>
       <r>    3.0302   -0.0000 </r>
       <r>    3.2256   -0.0000 </r>
      </set>
     </set>
    </set>
   </array>
  </eigenvalues>
  <separator name="orbital magnetization" >
   <v name="MAGDIPOLOUT">      0.00000000      0.00000000      0.00000000</v>
  </separator>
  <dos>
   <i name="efermi">      1.62678473 </i>
   <total>
    <array>
     <dimension dim="1">gridpoints</dimension>
     <dimension dim="2">spin</dimension>
     <field>energy</field>
     <field>total</field>
     <field>integrated</field>
     <set>
      <set comment="spin 1">
       <r>   -24.6671     0.0000     0.0000 </r>
       <r>   -24.5675     0.0000     0.0000 </r>
       <r>   -24.4679     0.0000     0.0000 </r>
       <r>   -24.3682     0.0000     0.0000 </r>
       <r>   -24.2686    -0.0000    -0.0000 </r>
       <r>   -24.1689    -0.0000    -0.0000 </r>
       <r>   -24.0693    -0.0000    -0.0000 </r>
       <r>   -23.9696    -0.0000    -0.0000 </r>
       <r>   -23.8700    -0.0000    -0.0000 </r>
       <r>   -23.7704    -0.0000    -0.0000 </r>
       <r>   -23.6707    -0.0000    -0.0000 </r>
       <r>   -23.5711    -0.0000    -0.0000 </r>
       <r>   -23.4714    -0.0000    -0.0000 </r>
       <r>   -23.3718    -0.0001    -0.0000 </r>
       <r>   -23.2721    -0.0017    -0.0002 </r>
       <r>   -23.1725    -0.0217    -0.0023 </r>
       <r>   -23.0729    -0.1550    -0.0178 </r>
       <r>   -22.9732    -0.5526    -0.0728 </r>
       <r>   -22.8736    -0.4765    -0.1203 </r>
       <r>   -22.7739     2.8865     0.1673 </r>
       <r>   -22.6743     9.9364     1.1574 </r>
       <r>   -22.5747    13.4833     2.5009 </r>
       <r>   -22.4750    12.5429     3.7507 </r>
       <r>   -22.3754    21.1746     5.8606 </r>
       <r>   -22.2757    40.7852     9.9245 </r>
       <r>   -22.1761    49.9007    14.8968 </r>
       <r>   -22.0764    38.3222    18.7153 </r>
       <r>   -21.9768    23.9120    21.0979 </r>
       <r>   -21.8772    22.9625    23.3859 </r>
       <r>   -21.7775    25.0137    25.8784 </r>
       <r>   -21.6779    17.1473    27.5870 </r>
       <r>   -21.5782     5.6230    28.1472 </r>
       <r>   -21.4786    -0.2187    28.1254 </r>
       <r>   -21.3789    -0.8761    28.0382 </r>
       <r>   -21.2793    -0.3201    28.0063 </r>
       <r>   -21.1797    -0.0568    28.0006 </r>
       <r>   -21.0800    -0.0056    28.0000 </r>
       <r>   -20.9804    -0.0003    28.0000 </r>
       <r>   -20.8807    -0.0000    28.0000 </r>
       <r>   -20.7811    -0.0000    28.0000 </r>
       <r>   -20.6814    -0.0000    28.0000 </r>
       <r>   -20.5818    -0.0000    28.0000 </r>
       <r>   -20.4822    -0.0000    28.0000 </r>
       <r>   -20.3825     0.0000    28.0000 </r>
       <r>   -20.2829     0.0000    28.0000 </r>
       <r>   -20.1832     0.0000    28.0000 </r>
       <r>   -20.0836     0.0000    28.0000 </r>
       <r>   -19.9840     0.0000    28.0000 </r>
       <r>   -19.8843     0.0000    28.0000 </r>
       <r>   -19.7847     0.0000    28.0000 </r>
       <r>   -19.6850     0.0000    28.0000 </r>
       <r>   -19.5854     0.0000    28.0000 </r>
       <r>   -19.4857     0.0000    28.0000 </r>
       <r>   -19.3861     0.0000    28.0000 </r>
       <r>   -19.2865     0.0000    28.0000 </r>
       <r>   -19.1868     0.0000    28.0000 </r>
       <r>   -19.0872     0.0000    28.0000 </r>
       <r>   -18.9875     0.0000    28.0000 </r>
       <r>   -18.8879     0.0000    28.0000 </r>
       <r>   -18.7882     0.0000    28.0000 </r>
       <r>   -18.6886     0.0000    28.0000 </r>
       <r>   -18.5890     0.0000    28.0000 </r>
       <r>   -18.4893    -0.0000    28.0000 </r>
       <r>   -18.3897    -0.0000    28.0000 </r>
       <r>   -18.2900    -0.0000    28.0000 </r>
       <r>   -18.1904    -0.0000    28.0000 </r>
       <r>   -18.0907    -0.0000    28.0000 </r>
       <r>   -17.9911    -0.0000    28.0000 </r>
       <r>   -17.8915    -0.0000    28.0000 </r>
       <r>   -17.7918    -0.0000    28.0000 </r>
       <r>   -17.6922    -0.0000    28.0000 </r>
       <r>   -17.5925    -0.0000    28.0000 </r>
       <r>   -17.4929    -0.0003    28.0000 </r>
       <r>   -17.3933    -0.0055    27.9994 </r>
       <r>   -17.2936    -0.0577    27.9937 </r>
       <r>   -17.1940    -0.3227    27.9615 </r>
       <r>   -17.0943    -0.7743    27.8844 </r>
       <r>   -16.9947     0.5321    27.9374 </r>
       <r>   -16.8950     6.9800    28.6329 </r>
       <r>   -16.7954    14.9152    30.1191 </r>
       <r>   -16.6958    14.1080    31.5248 </r>
       <r>   -16.5961     5.7347    32.0962 </r>
       <r>   -16.4965     0.0803    32.1042 </r>
       <r>   -16.3968    -0.7369    32.0308 </r>
       <r>   -16.2972    -0.2626    32.0046 </r>
       <r>   -16.1975    -0.0426    32.0004 </r>
       <r>   -16.0979    -0.0038    32.0000 </r>
       <r>   -15.9983    -0.0002    32.0000 </r>
       <r>   -15.8986    -0.0000    32.0000 </r>
       <r>   -15.7990    -0.0000    32.0000 </r>
       <r>   -15.6993    -0.0000    32.0000 </r>
       <r>   -15.5997    -0.0000    32.0000 </r>
       <r>   -15.5000    -0.0000    32.0000 </r>
       <r>   -15.4004     0.0000    32.0000 </r>
       <r>   -15.3008     0.0000    32.0000 </r>
       <r>   -15.2011     0.0000    32.0000 </r>
       <r>   -15.1015     0.0000    32.0000 </r>
       <r>   -15.0018     0.0000    32.0000 </r>
       <r>   -14.9022     0.0000    32.0000 </r>
       <r>   -14.8026     0.0000    32.0000 </r>
       <r>   -14.7029     0.0000    32.0000 </r>
       <r>   -14.6033     0.0000    32.0000 </r>
       <r>   -14.5036     0.0000    32.0000 </r>
       <r>   -14.4040     0.0000    32.0000 </r>
       <r>   -14.3043     0.0000    32.0000 </r>
       <r>   -14.2047     0.0000    32.0000 </r>
       <r>   -14.1051     0.0000    32.0000 </r>
       <r>   -14.0054     0.0000    32.0000 </r>
       <r>   -13.9058     0.0000    32.0000 </r>
       <r>   -13.8061     0.0000    32.0000 </r>
       <r>   -13.7065     0.0000    32.0000 </r>
       <r>   -13.6068     0.0000    32.0000 </r>
       <r>   -13.5072     0.0000    32.0000 </r>
       <r>   -13.4076     0.0000    32.0000 </r>
       <r>   -13.3079     0.0000    32.0000 </r>
       <r>   -13.2083     0.0000    32.0000 </r>
       <r>   -13.1086     0.0000    32.0000 </r>
       <r>   -13.0090     0.0000    32.0000 </r>
       <r>   -12.9093     0.0000    32.0000 </r>
       <r>   -12.8097     0.0000    32.0000 </r>
       <r>   -12.7101     0.0000    32.0000 </r>
       <r>   -12.6104     0.0000    32.0000 </r>
       <r>   -12.5108     0.0000    32.0000 </r>
       <r>   -12.4111     0.0000    32.0000 </r>
       <r>   -12.3115     0.0000    32.0000 </r>
       <r>   -12.2119     0.0000    32.0000 </r>
       <r>   -12.1122     0.0000    32.0000 </r>
       <r>   -12.0126     0.0000    32.0000 </r>
       <r>   -11.9129     0.0000    32.0000 </r>
       <r>   -11.8133     0.0000    32.0000 </r>
       <r>   -11.7136     0.0000    32.0000 </r>
       <r>   -11.6140     0.0000    32.0000 </r>
       <r>   -11.5144     0.0000    32.0000 </r>
       <r>   -11.4147     0.0000    32.0000 </r>
       <r>   -11.3151     0.0000    32.0000 </r>
       <r>   -11.2154     0.0000    32.0000 </r>
       <r>   -11.1158     0.0000    32.0000 </r>
       <r>   -11.0161     0.0000    32.0000 </r>
       <r>   -10.9165     0.0000    32.0000 </r>
       <r>   -10.8169     0.0000    32.0000 </r>
       <r>   -10.7172     0.0000    32.0000 </r>
       <r>   -10.6176     0.0000    32.0000 </r>
       <r>   -10.5179     0.0000    32.0000 </r>
       <r>   -10.4183     0.0000    32.0000 </r>
       <r>   -10.3186     0.0000    32.0000 </r>
       <r>   -10.2190     0.0000    32.0000 </r>
       <r>   -10.1194     0.0000    32.0000 </r>
       <r>   -10.0197     0.0000    32.0000 </r>
       <r>    -9.9201     0.0000    32.0000 </r>
       <r>    -9.8204     0.0000    32.0000 </r>
       <r>    -9.7208     0.0000    32.0000 </r>
       <r>    -9.6212     0.0000    32.0000 </r>
       <r>    -9.5215     0.0000    32.0000 </r>
       <r>    -9.4219     0.0000    32.0000 </r>
       <r>    -9.3222     0.0000    32.0000 </r>
       <r>    -9.2226     0.0000    32.0000 </r>
       <r>    -9.1229     0.0000    32.0000 </r>
       <r>    -9.0233     0.0000    32.0000 </r>
       <r>    -8.9237     0.0000    32.0000 </r>
       <r>    -8.8240     0.0000    32.0000 </r>
       <r>    -8.7244     0.0000    32.0000 </r>
       <r>    -8.6247     0.0000    32.0000 </r>
       <r>    -8.5251     0.0000    32.0000 </r>
       <r>    -8.4254     0.0000    32.0000 </r>
       <r>    -8.3258     0.0000    32.0000 </r>
       <r>    -8.2262     0.0000    32.0000 </r>
       <r>    -8.1265     0.0000    32.0000 </r>
       <r>    -8.0269     0.0000    32.0000 </r>
       <r>    -7.9272     0.0000    32.0000 </r>
       <r>    -7.8276     0.0000    32.0000 </r>
       <r>    -7.7279    -0.0000    32.0000 </r>
       <r>    -7.6283    -0.0000    32.0000 </r>
       <r>    -7.5287    -0.0000    32.0000 </r>
       <r>    -7.4290    -0.0000    32.0000 </r>
       <r>    -7.3294    -0.0000    32.0000 </r>
       <r>    -7.2297    -0.0000    32.0000 </r>
       <r>    -7.1301    -0.0000    32.0000 </r>
       <r>    -7.0305    -0.0000    32.0000 </r>
       <r>    -6.9308    -0.0000    32.0000 </r>
       <r>    -6.8312    -0.0000    32.0000 </r>
       <r>    -6.7315    -0.0008    31.9999 </r>
       <r>    -6.6319    -0.0115    31.9988 </r>
       <r>    -6.5322    -0.0879    31.9900 </r>
       <r>    -6.4326    -0.3264    31.9575 </r>
       <r>    -6.3330    -0.2638    31.9312 </r>
       <r>    -6.2333     1.8945    32.1200 </r>
       <r>    -6.1337     6.1985    32.7376 </r>
       <r>    -6.0340     7.6254    33.4974 </r>
       <r>    -5.9344     4.7503    33.9707 </r>
       <r>    -5.8347     4.3122    34.4004 </r>
       <r>    -5.7351     7.1538    35.1132 </r>
       <r>    -5.6355     6.2357    35.7346 </r>
       <r>    -5.5358     2.1553    35.9493 </r>
       <r>    -5.4362     2.5450    36.2029 </r>
       <r>    -5.3365     9.2718    37.1268 </r>
       <r>    -5.2369    17.1744    38.8381 </r>
       <r>    -5.1372    21.3983    40.9703 </r>
       <r>    -5.0376    23.9699    43.3587 </r>
       <r>    -4.9380    28.6591    46.2144 </r>
       <r>    -4.8383    30.7108    49.2745 </r>
       <r>    -4.7387    26.8384    51.9487 </r>
       <r>    -4.6390    24.7308    54.4129 </r>
       <r>    -4.5394    28.5319    57.2559 </r>
       <r>    -4.4398    34.3629    60.6799 </r>
       <r>    -4.3401    42.8564    64.9502 </r>
       <r>    -4.2405    49.1672    69.8494 </r>
       <r>    -4.1408    44.9901    74.3323 </r>
       <r>    -4.0412    39.2616    78.2444 </r>
       <r>    -3.9415    40.2206    82.2521 </r>
       <r>    -3.8419    37.2340    85.9621 </r>
       <r>    -3.7423    26.2579    88.5785 </r>
       <r>    -3.6426    18.0938    90.3814 </r>
       <r>    -3.5430    17.7412    92.1492 </r>
       <r>    -3.4433    22.9639    94.4374 </r>
       <r>    -3.3437    25.9266    97.0208 </r>
       <r>    -3.2440    19.8864    99.0023 </r>
       <r>    -3.1444    14.7986   100.4769 </r>
       <r>    -3.0448    21.7266   102.6418 </r>
       <r>    -2.9451    29.7780   105.6089 </r>
       <r>    -2.8455    29.6212   108.5604 </r>
       <r>    -2.7458    29.6569   111.5155 </r>
       <r>    -2.6462    28.0035   114.3059 </r>
       <r>    -2.5465    21.9671   116.4947 </r>
       <r>    -2.4469    22.2704   118.7138 </r>
       <r>    -2.3473    25.2327   121.2280 </r>
       <r>    -2.2476    19.4621   123.1673 </r>
       <r>    -2.1480     8.5223   124.0165 </r>
       <r>    -2.0483     0.9870   124.1148 </r>
       <r>    -1.9487    -1.4614   123.9692 </r>
       <r>    -1.8491    -0.6729   123.9021 </r>
       <r>    -1.7494     4.5195   124.3525 </r>
       <r>    -1.6498    12.9934   125.6472 </r>
       <r>    -1.5501    15.3427   127.1759 </r>
       <r>    -1.4505     8.3010   128.0031 </r>
       <r>    -1.3508     1.2051   128.1232 </r>
       <r>    -1.2512    -0.7504   128.0484 </r>
       <r>    -1.1516    -0.3953   128.0090 </r>
       <r>    -1.0519    -0.0809   128.0009 </r>
       <r>    -0.9523    -0.0088   128.0001 </r>
       <r>    -0.8526    -0.0005   128.0000 </r>
       <r>    -0.7530    -0.0000   128.0000 </r>
       <r>    -0.6533    -0.0000   128.0000 </r>
       <r>    -0.5537    -0.0000   128.0000 </r>
       <r>    -0.4541    -0.0000   128.0000 </r>
       <r>    -0.3544    -0.0000   128.0000 </r>
       <r>    -0.2548    -0.0000   128.0000 </r>
       <r>    -0.1551    -0.0000   128.0000 </r>
       <r>    -0.0555    -0.0000   128.0000 </r>
       <r>     0.0442    -0.0000   128.0000 </r>
       <r>     0.1438    -0.0000   128.0000 </r>
       <r>     0.2434    -0.0005   128.0000 </r>
       <r>     0.3431    -0.0084   127.9991 </r>
       <r>     0.4427    -0.0910   127.9901 </r>
       <r>     0.5424    -0.5611   127.9341 </r>
       <r>     0.6420    -1.7607   127.7587 </r>
       <r>     0.7417    -1.3186   127.6273 </r>
       <r>     0.8413     8.8556   128.5097 </r>
       <r>     0.9409    33.0871   131.8066 </r>
       <r>     1.0406    57.2337   137.5095 </r>
       <r>     1.1402    64.5731   143.9437 </r>
       <r>     1.2399    61.7621   150.0978 </r>
       <r>     1.3395    62.3802   156.3135 </r>
       <r>     1.4391    65.9350   162.8834 </r>
       <r>     1.5388    64.6600   169.3263 </r>
       <r>     1.6384    52.0093   174.5086 </r>
       <r>     1.7381    33.9226   177.8888 </r>
       <r>     1.8377    26.3878   180.5181 </r>
       <r>     1.9374    31.8660   183.6933 </r>
       <r>     2.0370    36.3130   187.3116 </r>
       <r>     2.1366    29.9862   190.2995 </r>
       <r>     2.2363    17.9527   192.0884 </r>
       <r>     2.3359    12.3578   193.3197 </r>
       <r>     2.4356    12.9139   194.6065 </r>
       <r>     2.5352     9.3473   195.5379 </r>
       <r>     2.6349     4.0141   195.9378 </r>
       <r>     2.7345     8.7974   196.8144 </r>
       <r>     2.8341    22.9568   199.1019 </r>
       <r>     2.9338    31.0731   202.1981 </r>
       <r>     3.0334    25.4368   204.7327 </r>
       <r>     3.1331    15.3217   206.2594 </r>
       <r>     3.2327     9.7586   207.2317 </r>
       <r>     3.3324     6.3062   207.8601 </r>
       <r>     3.4320     2.1652   208.0758 </r>
       <r>     3.5316    -0.2080   208.0551 </r>
       <r>     3.6313    -0.4050   208.0148 </r>
       <r>     3.7309    -0.1274   208.0021 </r>
       <r>     3.8306    -0.0191   208.0002 </r>
       <r>     3.9302    -0.0016   208.0000 </r>
       <r>     4.0298    -0.0001   208.0000 </r>
       <r>     4.1295    -0.0000   208.0000 </r>
       <r>     4.2291    -0.0000   208.0000 </r>
       <r>     4.3288    -0.0000   208.0000 </r>
       <r>     4.4284    -0.0000   208.0000 </r>
       <r>     4.5281    -0.0000   208.0000 </r>
       <r>     4.6277     0.0000   208.0000 </r>
       <r>     4.7273     0.0000   208.0000 </r>
       <r>     4.8270     0.0000   208.0000 </r>
       <r>     4.9266     0.0000   208.0000 </r>
       <r>     5.0263     0.0000   208.0000 </r>
       <r>     5.1259     0.0000   208.0000 </r>
       <r>     5.2256     0.0000   208.0000 </r>
      </set>
     </set>
    </array>
   </total>
  </dos>
 </calculation>
 <structure name="finalpos" >
  <crystal>
   <varray name="basis" >
    <v>       5.73591900       0.00000000      -0.79026700 </v>
    <v>       0.00000000       4.78544200       0.00000000 </v>
    <v>       0.00000000       0.00000000      10.88396600 </v>
   </varray>
   <i name="volume">    298.75297805 </i>
   <varray name="rec_basis" >
    <v>       0.17433998       0.00000000       0.00000000 </v>
    <v>       0.00000000       0.20896711       0.00000000 </v>
    <v>       0.01265854       0.00000000       0.09187827 </v>
   </varray>
  </crystal>
  <varray name="positions" >
   <v>       0.24699400       0.24850600       0.74623300 </v>
   <v>       0.24699400       0.75149400       0.24623300 </v>
   <v>       0.51485700       0.24497600       0.49879200 </v>
   <v>       0.51485700       0.75502400       0.99879200 </v>
   <v>       0.75373900       0.23127500       0.26486200 </v>
   <v>       0.75373900       0.76872500       0.76756500 </v>
   <v>       0.99045900       0.24137200       0.99652900 </v>
   <v>       0.99045900       0.76663100       0.49652900 </v>
   <v>       0.77857200       0.05847800       0.41725200 </v>
   <v>       0.77857200       0.94152200       0.91725200 </v>
   <v>       0.01370000       0.05755600       0.18278600 </v>
   <v>       0.01370000       0.94244400       0.68278600 </v>
   <v>       0.22224900       0.44944100       0.56541100 </v>
   <v>       0.22224900       0.55055900       0.07080400 </v>
   <v>       0.27923300       0.05174700       0.92203700 </v>
   <v>       0.27923300       0.94825300       0.42203700 </v>
   <v>       0.48187500       0.45353000       0.31584000 </v>
   <v>       0.48187500       0.54647000       0.82423100 </v>
   <v>       0.52253600       0.03560000       0.67416600 </v>
   <v>       0.52253600       0.96440000       0.17416600 </v>
   <v>       0.72235300       0.44302000       0.09109400 </v>
   <v>       0.72235300       0.55698000       0.59109400 </v>
   <v>       0.97343300       0.45650500       0.81960400 </v>
   <v>       0.97343300       0.54349500       0.31960400 </v>
  </varray>
 </structure>
</modeling>
