<?xml version="1.0" encoding="ISO-8859-1"?>
<modeling>
 <generator>
  <i name="program" type="string">vasp </i>
  <i name="version" type="string">5.3.5  </i>
  <i name="subversion" type="string">31Mar14 (build Aug 29 2014 19:41:47) complex                          parallel </i>
  <i name="platform" type="string">LinuxIFC </i>
  <i name="date" type="string">2019 04 11 </i>
  <i name="time" type="string">13:26:10 </i>
 </generator>
 <incar>
  <i type="string" name="SYSTEM"> Fe4OF8_var_5</i>
  <i type="int" name="ISTART">     0</i>
  <i type="string" name="PREC">normal</i>
  <i type="string" name="ALGO"> VeryFast</i>
  <i type="int" name="ISPIN">     1</i>
  <i type="int" name="ICHARG">     2</i>
  <i type="int" name="NELM">   300</i>
  <i type="int" name="ISYM">     0</i>
  <i type="logical" name="LWAVE"> F  </i>
  <i type="int" name="NELM">   300</i>
 </incar>
 <kpoints>
  <generation param="Gamma">
   <v type="int" name="divisions">       1        1        1 </v>
   <v name="usershift">      0.00000000       0.00000000       0.00000000 </v>
   <v name="genvec1">      1.00000000       0.00000000       0.00000000 </v>
   <v name="genvec2">      0.00000000       1.00000000       0.00000000 </v>
   <v name="genvec3">     -0.00000000       0.00000000       1.00000000 </v>
   <v name="shift">      0.00000000       0.00000000       0.00000000 </v>
  </generation>
  <varray name="kpointlist" >
   <v>       0.00000000       0.00000000       0.00000000 </v>
  </varray>
  <varray name="weights" >
   <v>       1.00000000 </v>
  </varray>
 </kpoints>
 <parameters>
  <separator name="general" >
   <i type="string" name="SYSTEM">Fe4OF8_var_5</i>
   <i type="logical" name="LCOMPAT"> F  </i>
  </separator>
  <separator name="electronic" >
   <i type="string" name="PREC">normal</i>
   <i name="ENMAX">    400.00000000</i>
   <i name="ENAUG">    613.61400000</i>
   <i name="EDIFF">      0.00010000</i>
   <i type="int" name="IALGO">    48</i>
   <i type="int" name="IWAVPR">    10</i>
   <i type="int" name="NBANDS">   228</i>
   <i name="NELECT">    376.00000000</i>
   <i type="int" name="TURBO">     0</i>
   <i type="int" name="IRESTART">     0</i>
   <i type="int" name="NREBOOT">     0</i>
   <i type="int" name="NMIN">     0</i>
   <i name="EREF">      0.00000000</i>
   <separator name="electronic smearing" >
    <i type="int" name="ISMEAR">     1</i>
    <i name="SIGMA">      0.20000000</i>
    <i name="KSPACING">      0.50000000</i>
    <i type="logical" name="KGAMMA"> T  </i>
   </separator>
   <separator name="electronic projectors" >
    <i type="logical" name="LREAL"> F  </i>
    <v name="ROPT">      0.00000000      0.00000000      0.00000000</v>
    <i type="int" name="LMAXPAW">  -100</i>
    <i type="int" name="LMAXMIX">     2</i>
    <i type="logical" name="NLSPLINE"> F  </i>
   </separator>
   <separator name="electronic startup" >
    <i type="int" name="ISTART">     0</i>
    <i type="int" name="ICHARG">     2</i>
    <i type="int" name="INIWAV">     1</i>
   </separator>
   <separator name="electronic spin" >
    <i type="int" name="ISPIN">     1</i>
    <i type="logical" name="LNONCOLLINEAR"> F  </i>
    <v name="MAGMOM">      1.00000000      1.00000000      1.00000000      1.00000000      1.00000000      1.00000000      1.00000000      1.00000000      1.00000000      1.00000000      1.00000000      1.00000000      1.00000000      1.00000000      1.00000000      1.00000000      1.00000000      1.00000000      1.00000000      1.00000000
      1.00000000      1.00000000      1.00000000      1.00000000      1.00000000      1.00000000      1.00000000      1.00000000      1.00000000      1.00000000      1.00000000      1.00000000      1.00000000      1.00000000      1.00000000      1.00000000      1.00000000      1.00000000      1.00000000      1.00000000
      1.00000000      1.00000000      1.00000000      1.00000000      1.00000000      1.00000000      1.00000000      1.00000000      1.00000000      1.00000000      1.00000000      1.00000000</v>
    <i name="NUPDOWN">     -1.00000000</i>
    <i type="logical" name="LSORBIT"> F  </i>
    <v name="SAXIS">      0.00000000      0.00000000      1.00000000</v>
    <i type="logical" name="LSPIRAL"> F  </i>
    <v name="QSPIRAL">      0.00000000      0.00000000      0.00000000</v>
    <i type="logical" name="LZEROZ"> F  </i>
   </separator>
   <separator name="electronic exchange-correlation" >
    <i type="logical" name="LASPH"> F  </i>
    <i type="logical" name="LMETAGGA"> F  </i>
   </separator>
   <separator name="electronic convergence" >
    <i type="int" name="NELM">   300</i>
    <i type="int" name="NELMDL">   -12</i>
    <i type="int" name="NELMIN">     2</i>
    <i name="ENINI">    400.00000000</i>
    <separator name="electronic convergence detail" >
     <i type="logical" name="LDIAG"> T  </i>
     <i type="logical" name="LSUBROT"> F  </i>
     <i name="WEIMIN">      0.00000000</i>
     <i name="EBREAK">      0.00000011</i>
     <i name="DEPER">      0.30000000</i>
     <i type="int" name="NRMM">     4</i>
     <i name="TIME">      0.40000000</i>
    </separator>
   </separator>
   <separator name="electronic mixer" >
    <i name="AMIX">      0.40000000</i>
    <i name="BMIX">      1.00000000</i>
    <i name="AMIN">      0.10000000</i>
    <i name="AMIX_MAG">      1.60000000</i>
    <i name="BMIX_MAG">      1.00000000</i>
    <separator name="electronic mixer details" >
     <i type="int" name="IMIX">     4</i>
     <i type="int" name="MAXMIX">   -45</i>
     <i name="WC">    100.00000000</i>
     <i type="int" name="INIMIX">     1</i>
     <i type="int" name="MIXPRE">     1</i>
     <i type="int" name="MREMOVE">     5</i>
    </separator>
   </separator>
   <separator name="electronic dipolcorrection" >
    <i type="logical" name="LDIPOL"> F  </i>
    <i type="logical" name="LMONO"> F  </i>
    <i type="int" name="IDIPOL">     0</i>
    <i name="EPSILON">      1.00000000</i>
    <v name="DIPOL">   -100.00000000   -100.00000000   -100.00000000</v>
    <i name="EFIELD">      0.00000000</i>
   </separator>
  </separator>
  <separator name="grids" >
   <i type="int" name="NGX">    48</i>
   <i type="int" name="NGY">    28</i>
   <i type="int" name="NGZ">    80</i>
   <i type="int" name="NGXF">    96</i>
   <i type="int" name="NGYF">    56</i>
   <i type="int" name="NGZF">   160</i>
   <i type="logical" name="ADDGRID"> F  </i>
  </separator>
  <separator name="ionic" >
   <i type="int" name="NSW">     0</i>
   <i type="int" name="IBRION">    -1</i>
   <i type="int" name="ISIF">     2</i>
   <i name="PSTRESS">      0.00000000</i>
   <i name="EDIFFG">      0.00100000</i>
   <i type="int" name="NFREE">     0</i>
   <i name="POTIM">      0.50000000</i>
   <i name="SMASS">     -3.00000000</i>
   <i name="SCALEE">      1.00000000</i>
  </separator>
  <separator name="ionic md" >
   <i name="TEBEG">      0.00010000</i>
   <i name="TEEND">      0.00010000</i>
   <i type="int" name="NBLOCK">     1</i>
   <i type="int" name="KBLOCK">     1</i>
   <i type="int" name="NPACO">   256</i>
   <i name="APACO">     16.00000000</i>
  </separator>
  <separator name="symmetry" >
   <i type="int" name="ISYM">     0</i>
   <i name="SYMPREC">      0.00001000</i>
  </separator>
  <separator name="dos" >
   <i type="logical" name="LORBIT"> F  </i>
   <v name="RWIGS">     -1.00000000     -1.00000000     -1.00000000</v>
   <i type="int" name="NEDOS">   301</i>
   <i name="EMIN">     10.00000000</i>
   <i name="EMAX">    -10.00000000</i>
   <i name="EFERMI">      0.00000000</i>
  </separator>
  <separator name="writing" >
   <i type="int" name="NWRITE">     2</i>
   <i type="logical" name="LWAVE"> F  </i>
   <i type="logical" name="LCHARG"> T  </i>
   <i type="logical" name="LPARD"> F  </i>
   <i type="logical" name="LVTOT"> F  </i>
   <i type="logical" name="LVHAR"> F  </i>
   <i type="logical" name="LELF"> F  </i>
   <i type="logical" name="LOPTICS"> F  </i>
   <v name="STM">      0.00000000      0.00000000      0.00000000      0.00000000      0.00000000      0.00000000      0.00000000</v>
  </separator>
  <separator name="performance" >
   <i type="int" name="NPAR">     4</i>
   <i type="int" name="NSIM">     4</i>
   <i type="int" name="NBLK">    -1</i>
   <i type="logical" name="LPLANE"> T  </i>
   <i type="logical" name="LSCALAPACK"> T  </i>
   <i type="logical" name="LSCAAWARE"> F  </i>
   <i type="logical" name="LSCALU"> F  </i>
   <i type="logical" name="LASYNC"> F  </i>
   <i type="logical" name="LORBITALREAL"> F  </i>
  </separator>
  <separator name="miscellaneous" >
   <i type="int" name="IDIOT">     3</i>
   <i type="logical" name="LMUSIC"> F  </i>
   <v name="POMASS">     55.84700000     16.00000000     18.99800000</v>
   <v name="DARWINR">      0.00000000      0.00000000      0.00000000</v>
   <v name="DARWINV">      1.00000000      1.00000000      1.00000000</v>
   <i type="logical" name="LCORR"> T  </i>
  </separator>
  <i type="logical" name="GGA_COMPAT"> T  </i>
  <i type="logical" name="LBERRY"> F  </i>
  <i type="int" name="ICORELEVEL">     0</i>
  <i type="logical" name="LDAU"> F  </i>
  <i type="int" name="I_CONSTRAINED_M">     0</i>
  <separator name="electronic exchange-correlation" >
   <i type="string" name="GGA">--</i>
   <i type="int" name="VOSKOWN">     0</i>
   <i type="logical" name="LHFCALC"> F  </i>
   <i type="string" name="PRECFOCK"></i>
   <i type="logical" name="LSYMGRAD"> F  </i>
   <i type="logical" name="LHFONE"> F  </i>
   <i type="logical" name="LRHFCALC"> F  </i>
   <i type="logical" name="LTHOMAS"> F  </i>
   <i type="logical" name="LMODELHF"> F  </i>
   <i name="ENCUT4O">     -1.00000000</i>
   <i type="int" name="EXXOEP">     0</i>
   <i type="int" name="FOURORBIT">     0</i>
   <i name="AEXX">      0.00000000</i>
   <i name="HFALPHA">      0.00000000</i>
   <i name="MCALPHA">      0.00000000</i>
   <i name="ALDAX">      1.00000000</i>
   <i name="AGGAX">      1.00000000</i>
   <i name="ALDAC">      1.00000000</i>
   <i name="AGGAC">      1.00000000</i>
   <i type="int" name="NKREDX">     1</i>
   <i type="int" name="NKREDY">     1</i>
   <i type="int" name="NKREDZ">     1</i>
   <i type="logical" name="SHIFTRED"> F  </i>
   <i type="logical" name="ODDONLY"> F  </i>
   <i type="logical" name="EVENONLY"> F  </i>
   <i type="int" name="LMAXFOCK">     0</i>
   <i type="int" name="NMAXFOCKAE">     0</i>
   <i type="logical" name="LFOCKAEDFT"> F  </i>
   <i name="HFSCREEN">      0.00000000</i>
   <i name="HFSCREENC">      0.00000000</i>
   <i type="int" name="NBANDSGWLOW">     0</i>
  </separator>
  <separator name="vdW DFT" >
   <i type="logical" name="LUSE_VDW"> F  </i>
   <i name="Zab_VDW">     -0.84910000</i>
   <i name="PARAM1">      0.12340000</i>
   <i name="PARAM2">      1.00000000</i>
   <i name="PARAM3">      0.00000000</i>
  </separator>
  <separator name="model GW" >
   <i type="int" name="MODEL_GW">     0</i>
   <i name="MODEL_EPS0">      8.69476215</i>
   <i name="MODEL_ALPHA">      1.00000000</i>
  </separator>
  <separator name="linear response parameters" >
   <i type="logical" name="LEPSILON"> F  </i>
   <i type="logical" name="LRPA"> F  </i>
   <i type="logical" name="LNABLA"> F  </i>
   <i type="logical" name="LVEL"> F  </i>
   <i type="int" name="KINTER">     0</i>
   <i name="CSHIFT">      0.10000000</i>
   <i name="OMEGAMAX">     -1.00000000</i>
   <i name="DEG_THRESHOLD">      0.00200000</i>
  </separator>
  <separator name="orbital magnetization" >
   <i type="logical" name="NUCIND"> F  </i>
   <v name="MAGPOS">      0.00000000      0.00000000      0.00000000</v>
   <i type="logical" name="LNICSALL"> T  </i>
   <i type="logical" name="ORBITALMAG"> F  </i>
   <i type="logical" name="LMAGBLOCH"> F  </i>
   <i type="logical" name="LCHIMAG"> F  </i>
   <i type="logical" name="LGAUGE"> T  </i>
   <i type="int" name="MAGATOM">     0</i>
   <v name="MAGDIPOL">      0.00000000      0.00000000      0.00000000</v>
   <v name="AVECCONST">      0.00000000      0.00000000      0.00000000</v>
  </separator>
  <separator name="response functions" >
   <i type="logical" name="LADDER"> F  </i>
   <i type="logical" name="LFXC"> F  </i>
   <i type="logical" name="LHARTREE"> T  </i>
   <i type="int" name="IBSE">     0</i>
   <i type="logical" name="LTCTE"> F  </i>
   <i type="logical" name="LTETE"> F  </i>
   <i type="logical" name="LTRIPLET"> F  </i>
   <i type="logical" name="LFXCEPS"> F  </i>
   <i type="logical" name="LFXHEG"> F  </i>
   <i type="logical" name="L2ORDER"> F  </i>
   <i type="logical" name="LUSEW"> F  </i>
   <i name="ENCUTGW">     -2.00000000</i>
   <i name="ENCUTGWSOFT">     -2.00000000</i>
   <i name="ENCUTLF">     -1.00000000</i>
   <i type="int" name="LMAXMP2">    -1</i>
   <i name="SCISSOR">      0.00000000</i>
   <i type="int" name="NOMEGA">     0</i>
   <i type="int" name="NOMEGAR">     0</i>
   <i type="int" name="NBANDSGW">    -1</i>
   <i type="int" name="NBANDSO">    -1</i>
   <i type="int" name="NBANDSV">    -1</i>
   <i type="int" name="NELM">   300</i>
   <i type="int" name="DIM">     3</i>
   <i type="int" name="ANTIRES">     0</i>
   <i name="OMEGAMAX">    -30.00000000</i>
   <i name="OMEGAMIN">    -30.00000000</i>
   <i name="OMEGATL">   -200.00000000</i>
   <i type="int" name="OMEGAGRID">     0</i>
   <i name="CSHIFT">     -0.10000000</i>
   <i type="logical" name="SELFENERGY"> F  </i>
   <i type="logical" name="LSPECTRAL"> F  </i>
   <i type="logical" name="ODDONLYGW"> F  </i>
   <i type="logical" name="EVENONLYGW"> F  </i>
   <i type="int" name="NKREDLFX">     1</i>
   <i type="int" name="NKREDLFY">     1</i>
   <i type="int" name="NKREDLFZ">     1</i>
   <i type="int" name="MAXMEM">  1800</i>
   <i type="int" name="TELESCOPE">     0</i>
   <i type="int" name="TAUPAR">     1</i>
  </separator>
  <separator name="External order field" >
   <i name="OFIELD_KAPPA">      0.00000000</i>
   <v name="OFIELD_K">      0.00000000      0.00000000      0.00000000</v>
   <i name="OFIELD_Q6_NEAR">      0.00000000</i>
   <i name="OFIELD_Q6_FAR">      0.00000000</i>
   <i name="OFIELD_A">      0.00000000</i>
  </separator>
 </parameters>
 <atominfo>
  <atoms>      52 </atoms>
  <types>       3 </types>
  <array name="atoms" >
   <dimension dim="1">ion</dimension>
   <field type="string">element</field>
   <field type="int">atomtype</field>
   <set>
    <rc><c>Fe</c><c>   1</c></rc>
    <rc><c>Fe</c><c>   1</c></rc>
    <rc><c>Fe</c><c>   1</c></rc>
    <rc><c>Fe</c><c>   1</c></rc>
    <rc><c>Fe</c><c>   1</c></rc>
    <rc><c>Fe</c><c>   1</c></rc>
    <rc><c>Fe</c><c>   1</c></rc>
    <rc><c>Fe</c><c>   1</c></rc>
    <rc><c>Fe</c><c>   1</c></rc>
    <rc><c>Fe</c><c>   1</c></rc>
    <rc><c>Fe</c><c>   1</c></rc>
    <rc><c>Fe</c><c>   1</c></rc>
    <rc><c>Fe</c><c>   1</c></rc>
    <rc><c>Fe</c><c>   1</c></rc>
    <rc><c>Fe</c><c>   1</c></rc>
    <rc><c>Fe</c><c>   1</c></rc>
    <rc><c>O </c><c>   2</c></rc>
    <rc><c>O </c><c>   2</c></rc>
    <rc><c>O </c><c>   2</c></rc>
    <rc><c>O </c><c>   2</c></rc>
    <rc><c>F </c><c>   3</c></rc>
    <rc><c>F </c><c>   3</c></rc>
    <rc><c>F </c><c>   3</c></rc>
    <rc><c>F </c><c>   3</c></rc>
    <rc><c>F </c><c>   3</c></rc>
    <rc><c>F </c><c>   3</c></rc>
    <rc><c>F </c><c>   3</c></rc>
    <rc><c>F </c><c>   3</c></rc>
    <rc><c>F </c><c>   3</c></rc>
    <rc><c>F </c><c>   3</c></rc>
    <rc><c>F </c><c>   3</c></rc>
    <rc><c>F </c><c>   3</c></rc>
    <rc><c>F </c><c>   3</c></rc>
    <rc><c>F </c><c>   3</c></rc>
    <rc><c>F </c><c>   3</c></rc>
    <rc><c>F </c><c>   3</c></rc>
    <rc><c>F </c><c>   3</c></rc>
    <rc><c>F </c><c>   3</c></rc>
    <rc><c>F </c><c>   3</c></rc>
    <rc><c>F </c><c>   3</c></rc>
    <rc><c>F </c><c>   3</c></rc>
    <rc><c>F </c><c>   3</c></rc>
    <rc><c>F </c><c>   3</c></rc>
    <rc><c>F </c><c>   3</c></rc>
    <rc><c>F </c><c>   3</c></rc>
    <rc><c>F </c><c>   3</c></rc>
    <rc><c>F </c><c>   3</c></rc>
    <rc><c>F </c><c>   3</c></rc>
    <rc><c>F </c><c>   3</c></rc>
    <rc><c>F </c><c>   3</c></rc>
    <rc><c>F </c><c>   3</c></rc>
    <rc><c>F </c><c>   3</c></rc>
   </set>
  </array>
  <array name="atomtypes" >
   <dimension dim="1">type</dimension>
   <field type="int">atomspertype</field>
   <field type="string">element</field>
   <field>mass</field>
   <field>valence</field>
   <field type="string">pseudopotential</field>
   <set>
    <rc><c>  16</c><c>Fe</c><c>     55.84700000</c><c>      8.00000000</c><c>  PAW_PBE Fe 06Sep2000                  </c></rc>
    <rc><c>   4</c><c>O </c><c>     16.00000000</c><c>      6.00000000</c><c>  PAW_PBE O 08Apr2002                   </c></rc>
    <rc><c>  32</c><c>F </c><c>     18.99800000</c><c>      7.00000000</c><c>  PAW_PBE F 08Apr2002                   </c></rc>
   </set>
  </array>
 </atominfo>
 <structure name="initialpos" >
  <crystal>
   <varray name="basis" >
    <v>       9.40119100       0.00000000      -0.08412900 </v>
    <v>       0.00000000       5.35946700       0.00000000 </v>
    <v>       0.00000000       0.00000000      14.95565100 </v>
   </varray>
   <i name="volume">    753.54605297 </i>
   <varray name="rec_basis" >
    <v>       0.10636950       0.00000000       0.00000000 </v>
    <v>       0.00000000       0.18658572       0.00000000 </v>
    <v>       0.00059835       0.00000000       0.06686436 </v>
   </varray>
  </crystal>
  <varray name="positions" >
   <v>       0.16411200       0.48397600       0.17995900 </v>
   <v>       0.16411200       0.51602400       0.67995900 </v>
   <v>       0.66411200       0.98397600       0.17995900 </v>
   <v>       0.66411200       0.01266800       0.67995900 </v>
   <v>       0.17533200       0.47285200       0.97303200 </v>
   <v>       0.17533200       0.52714800       0.47303200 </v>
   <v>       0.67533200       0.97285200       0.96651900 </v>
   <v>       0.67533200       0.02714800       0.47303200 </v>
   <v>       0.33162900       0.02941400       0.82240100 </v>
   <v>       0.33162900       0.97058600       0.32240100 </v>
   <v>       0.83162900       0.52941400       0.82240100 </v>
   <v>       0.83162900       0.47058600       0.31509100 </v>
   <v>       0.33361900       0.00432000       0.51711500 </v>
   <v>       0.33361900       0.99568000       0.01711500 </v>
   <v>       0.83361900       0.50432000       0.51711500 </v>
   <v>       0.83361900       0.49568000       0.01711500 </v>
   <v>       0.30926400       0.26740800       0.92544800 </v>
   <v>       0.30926400       0.73259200       0.42544800 </v>
   <v>       0.80926400       0.76740800       0.92857300 </v>
   <v>       0.80926400       0.23259200       0.42544800 </v>
   <v>       0.00386100       0.36884200       0.24394900 </v>
   <v>       0.00386100       0.62580300       0.73448300 </v>
   <v>       0.50386100       0.86884200       0.24394900 </v>
   <v>       0.50386100       0.13115800       0.74394900 </v>
   <v>       0.02591400       0.40423800       0.56952300 </v>
   <v>       0.02591400       0.60462300       0.07915900 </v>
   <v>       0.52591400       0.89537700       0.57915900 </v>
   <v>       0.52591400       0.10462300       0.07915900 </v>
   <v>       0.17611800       0.21417000       0.08350500 </v>
   <v>       0.17611800       0.78583000       0.58350500 </v>
   <v>       0.67611800       0.71417000       0.08350500 </v>
   <v>       0.67611800       0.28583000       0.58350500 </v>
   <v>       0.18147400       0.20344500       0.73945400 </v>
   <v>       0.18147400       0.79655500       0.23945400 </v>
   <v>       0.68147400       0.70344500       0.73945400 </v>
   <v>       0.68147400       0.29655500       0.23945400 </v>
   <v>       0.18900300       0.20186000       0.42366300 </v>
   <v>       0.18900300       0.79814000       0.92366300 </v>
   <v>       0.68900300       0.70186000       0.42142700 </v>
   <v>       0.68900300       0.29814000       0.92366300 </v>
   <v>       0.29347700       0.34686800       0.57827500 </v>
   <v>       0.29347700       0.64445200       0.07827500 </v>
   <v>       0.79347700       0.84928900       0.57827500 </v>
   <v>       0.79347700       0.15313200       0.07827500 </v>
   <v>       0.30310600       0.31251000       0.24801900 </v>
   <v>       0.30310600       0.69438900       0.74801900 </v>
   <v>       0.80310600       0.80561100       0.24801900 </v>
   <v>       0.80310600       0.19438900       0.74801900 </v>
   <v>       0.49071400       0.13464800       0.42295500 </v>
   <v>       0.49071400       0.86535200       0.92185000 </v>
   <v>       0.99071400       0.63464800       0.42295500 </v>
   <v>       0.99785200       0.36535200       0.92295500 </v>
  </varray>
 </structure>
 <calculation>
  <scstep>
   <time name="diag">    0.49    0.60</time>
   <time name="diis">    1.05    1.50</time>
   <time name="orth">    0.09    0.18</time>
   <time name="total">    1.78    2.56</time>
   <energy>
    <i name="alphaZ">   1136.56246079 </i>
    <i name="ewald"> -19695.81823430 </i>
    <i name="hartreedc"> -12191.80582725 </i>
    <i name="XCdc">   1336.24773796 </i>
    <i name="pawpsdc">  27518.38149996 </i>
    <i name="pawaedc"> -27812.06485035 </i>
    <i name="eentropy">     -0.03966136 </i>
    <i name="bandstr">   2135.05730992 </i>
    <i name="atom">  32340.34786160 </i>
    <i name="e_fr_energy">   4766.86829696 </i>
    <i name="e_wo_entrp">   4766.90795832 </i>
    <i name="e_0_energy">   4766.88151742 </i>
   </energy>
  </scstep>
  <scstep>
   <time name="diag">    0.65    1.01</time>
   <time name="diis">    1.09    1.51</time>
   <time name="orth">    0.20    0.26</time>
   <time name="total">    1.95    2.79</time>
   <energy>
    <i name="e_fr_energy">   1582.59009188 </i>
    <i name="e_wo_entrp">   1582.56390494 </i>
    <i name="e_0_energy">   1582.58136290 </i>
   </energy>
  </scstep>
  <scstep>
   <time name="diag">    0.44    0.58</time>
   <time name="diis">    1.37    1.63</time>
   <time name="orth">    0.18    0.20</time>
   <time name="total">    1.99    2.41</time>
   <energy>
    <i name="e_fr_energy">    544.47028400 </i>
    <i name="e_wo_entrp">    544.28636714 </i>
    <i name="e_0_energy">    544.40897838 </i>
   </energy>
  </scstep>
  <scstep>
   <time name="diag">    0.50    0.59</time>
   <time name="diis">    1.10    1.58</time>
   <time name="orth">    0.14    0.21</time>
   <time name="total">    1.74    2.38</time>
   <energy>
    <i name="e_fr_energy">    116.06575164 </i>
    <i name="e_wo_entrp">    116.04687536 </i>
    <i name="e_0_energy">    116.05945955 </i>
   </energy>
  </scstep>
  <scstep>
   <time name="diag">    0.43    0.69</time>
   <time name="diis">    1.12    1.54</time>
   <time name="orth">    0.19    0.33</time>
   <time name="total">    1.75    2.57</time>
   <energy>
    <i name="e_fr_energy">   -132.06477888 </i>
    <i name="e_wo_entrp">   -132.24686279 </i>
    <i name="e_0_energy">   -132.12547352 </i>
   </energy>
  </scstep>
  <scstep>
   <time name="diag">    0.38    0.55</time>
   <time name="diis">    1.05    1.75</time>
   <time name="orth">    0.12    0.12</time>
   <time name="total">    1.55    2.41</time>
   <energy>
    <i name="e_fr_energy">   -242.08925730 </i>
    <i name="e_wo_entrp">   -242.11972673 </i>
    <i name="e_0_energy">   -242.09941378 </i>
   </energy>
  </scstep>
  <scstep>
   <time name="diag">    0.70    1.04</time>
   <time name="diis">    1.12    1.60</time>
   <time name="orth">    0.12    0.16</time>
   <time name="total">    1.94    2.80</time>
   <energy>
    <i name="e_fr_energy">   -296.19455721 </i>
    <i name="e_wo_entrp">   -296.24120517 </i>
    <i name="e_0_energy">   -296.21010653 </i>
   </energy>
  </scstep>
  <scstep>
   <time name="diag">    0.55    0.75</time>
   <time name="diis">    1.12    1.51</time>
   <time name="orth">    0.13    0.19</time>
   <time name="total">    1.80    2.45</time>
   <energy>
    <i name="e_fr_energy">   -316.99808628 </i>
    <i name="e_wo_entrp">   -317.03249875 </i>
    <i name="e_0_energy">   -317.00955710 </i>
   </energy>
  </scstep>
  <scstep>
   <time name="diag">    0.35    0.52</time>
   <time name="diis">    3.27    5.03</time>
   <time name="orth">    0.21    0.29</time>
   <time name="total">    3.84    5.84</time>
   <energy>
    <i name="e_fr_energy">   -336.44401602 </i>
    <i name="e_wo_entrp">   -336.47907544 </i>
    <i name="e_0_energy">   -336.45570249 </i>
   </energy>
  </scstep>
  <scstep>
   <time name="diag">    0.39    0.69</time>
   <time name="diis">    3.27    4.89</time>
   <time name="orth">    0.12    0.19</time>
   <time name="total">    3.81    5.79</time>
   <energy>
    <i name="e_fr_energy">   -336.98019951 </i>
    <i name="e_wo_entrp">   -337.02473407 </i>
    <i name="e_0_energy">   -336.99504436 </i>
   </energy>
  </scstep>
  <scstep>
   <time name="diag">    0.31    0.47</time>
   <time name="diis">    2.93    4.26</time>
   <time name="orth">    0.22    0.35</time>
   <time name="total">    3.46    5.08</time>
   <energy>
    <i name="e_fr_energy">   -337.30120749 </i>
    <i name="e_wo_entrp">   -337.33726518 </i>
    <i name="e_0_energy">   -337.31322672 </i>
   </energy>
  </scstep>
  <scstep>
   <time name="diag">    0.54    0.89</time>
   <time name="diis">    2.50    3.69</time>
   <time name="orth">    0.14    0.23</time>
   <time name="total">    3.31    4.99</time>
   <energy>
    <i name="e_fr_energy">   -337.43696792 </i>
    <i name="e_wo_entrp">   -337.46914662 </i>
    <i name="e_0_energy">   -337.44769416 </i>
   </energy>
  </scstep>
  <scstep>
   <time name="diag">    0.38    0.58</time>
   <time name="diis">    2.56    3.20</time>
   <time name="orth">    0.15    0.18</time>
   <time name="total">    3.33    4.31</time>
   <energy>
    <i name="e_fr_energy">   -326.01078203 </i>
    <i name="e_wo_entrp">   -325.76426243 </i>
    <i name="e_0_energy">   -325.92860883 </i>
   </energy>
  </scstep>
  <scstep>
   <time name="diag">    0.41    0.49</time>
   <time name="diis">    2.41    3.17</time>
   <time name="orth">    0.12    0.12</time>
   <time name="total">    3.22    4.14</time>
   <energy>
    <i name="e_fr_energy">   -390.64480530 </i>
    <i name="e_wo_entrp">   -390.61394112 </i>
    <i name="e_0_energy">   -390.63451724 </i>
   </energy>
  </scstep>
  <scstep>
   <time name="diag">    0.43    0.56</time>
   <time name="diis">    2.09    3.17</time>
   <time name="orth">    0.13    0.19</time>
   <time name="total">    2.88    4.26</time>
   <energy>
    <i name="e_fr_energy">   -315.20802492 </i>
    <i name="e_wo_entrp">   -315.17482989 </i>
    <i name="e_0_energy">   -315.19695991 </i>
   </energy>
  </scstep>
  <scstep>
   <time name="diag">    0.53    0.61</time>
   <time name="diis">    2.25    3.19</time>
   <time name="orth">    0.15    0.28</time>
   <time name="total">    3.23    4.51</time>
   <energy>
    <i name="e_fr_energy">   -293.51780288 </i>
    <i name="e_wo_entrp">   -293.61612324 </i>
    <i name="e_0_energy">   -293.55057633 </i>
   </energy>
  </scstep>
  <scstep>
   <time name="diag">    0.41    0.60</time>
   <time name="diis">    2.83    3.96</time>
   <time name="orth">    0.14    0.24</time>
   <time name="total">    3.71    5.22</time>
   <energy>
    <i name="e_fr_energy">   -383.40304593 </i>
    <i name="e_wo_entrp">   -383.41251940 </i>
    <i name="e_0_energy">   -383.40620375 </i>
   </energy>
  </scstep>
  <scstep>
   <time name="diag">    0.46    0.74</time>
   <time name="diis">    2.72    4.06</time>
   <time name="orth">    0.14    0.20</time>
   <time name="total">    3.66    5.45</time>
   <energy>
    <i name="e_fr_energy">   -367.39203172 </i>
    <i name="e_wo_entrp">   -367.22476973 </i>
    <i name="e_0_energy">   -367.33627773 </i>
   </energy>
  </scstep>
  <scstep>
   <time name="diag">    0.56    0.87</time>
   <time name="diis">    2.65    3.91</time>
   <time name="orth">    0.17    0.18</time>
   <time name="total">    3.95    5.91</time>
   <energy>
    <i name="e_fr_energy">   -337.56157642 </i>
    <i name="e_wo_entrp">   -337.58941401 </i>
    <i name="e_0_energy">   -337.57085562 </i>
   </energy>
  </scstep>
  <scstep>
   <time name="diag">    0.50    0.67</time>
   <time name="diis">    3.17    3.81</time>
   <time name="orth">    0.16    0.23</time>
   <time name="total">    4.19    5.25</time>
   <energy>
    <i name="e_fr_energy">   -340.27539338 </i>
    <i name="e_wo_entrp">   -340.33421202 </i>
    <i name="e_0_energy">   -340.29499959 </i>
   </energy>
  </scstep>
  <scstep>
   <time name="diag">    0.44    0.62</time>
   <time name="diis">    2.45    3.52</time>
   <time name="orth">    0.28    0.44</time>
   <time name="total">    3.64    5.19</time>
   <energy>
    <i name="e_fr_energy">   -347.58566777 </i>
    <i name="e_wo_entrp">   -347.56072317 </i>
    <i name="e_0_energy">   -347.57735290 </i>
   </energy>
  </scstep>
  <scstep>
   <time name="diag">    0.51    0.78</time>
   <time name="diis">    2.67    3.98</time>
   <time name="orth">    0.17    0.24</time>
   <time name="total">    3.71    5.51</time>
   <energy>
    <i name="e_fr_energy">   -344.43832884 </i>
    <i name="e_wo_entrp">   -344.37316176 </i>
    <i name="e_0_energy">   -344.41660648 </i>
   </energy>
  </scstep>
  <scstep>
   <time name="diag">    0.39    0.59</time>
   <time name="diis">    2.62    3.87</time>
   <time name="orth">    0.13    0.15</time>
   <time name="total">    3.55    5.17</time>
   <energy>
    <i name="e_fr_energy">   -311.47087763 </i>
    <i name="e_wo_entrp">   -311.34182411 </i>
    <i name="e_0_energy">   -311.42785979 </i>
   </energy>
  </scstep>
  <scstep>
   <time name="diag">    0.42    0.64</time>
   <time name="diis">    3.21    4.45</time>
   <time name="orth">    0.27    0.34</time>
   <time name="total">    4.35    6.07</time>
   <energy>
    <i name="e_fr_energy">   -287.48909606 </i>
    <i name="e_wo_entrp">   -287.50078560 </i>
    <i name="e_0_energy">   -287.49299257 </i>
   </energy>
  </scstep>
  <scstep>
   <time name="diag">    0.44    0.52</time>
   <time name="diis">    3.00    3.74</time>
   <time name="orth">    0.29    0.40</time>
   <time name="total">    4.22    5.31</time>
   <energy>
    <i name="e_fr_energy">   -290.40928622 </i>
    <i name="e_wo_entrp">   -290.34925861 </i>
    <i name="e_0_energy">   -290.38927702 </i>
   </energy>
  </scstep>
  <scstep>
   <time name="diag">    0.59    0.71</time>
   <time name="diis">    3.14    4.35</time>
   <time name="orth">    0.15    0.21</time>
   <time name="total">    4.32    5.82</time>
   <energy>
    <i name="e_fr_energy">   -288.29376220 </i>
    <i name="e_wo_entrp">   -288.38821952 </i>
    <i name="e_0_energy">   -288.32524798 </i>
   </energy>
  </scstep>
  <scstep>
   <time name="diag">    0.52    0.80</time>
   <time name="diis">    3.09    3.80</time>
   <time name="orth">    0.16    0.19</time>
   <time name="total">    4.23    5.41</time>
   <energy>
    <i name="e_fr_energy">   -282.36752675 </i>
    <i name="e_wo_entrp">   -282.31503316 </i>
    <i name="e_0_energy">   -282.35002889 </i>
   </energy>
  </scstep>
  <scstep>
   <time name="diag">    0.54    0.72</time>
   <time name="diis">    2.74    3.93</time>
   <time name="orth">    0.10    0.15</time>
   <time name="total">    3.79    5.28</time>
   <energy>
    <i name="e_fr_energy">   -281.81614198 </i>
    <i name="e_wo_entrp">   -281.80158153 </i>
    <i name="e_0_energy">   -281.81128850 </i>
   </energy>
  </scstep>
  <scstep>
   <time name="diag">    0.72    1.07</time>
   <time name="diis">    2.67    3.97</time>
   <time name="orth">    0.12    0.21</time>
   <time name="total">    3.86    5.70</time>
   <energy>
    <i name="e_fr_energy">   -283.88031803 </i>
    <i name="e_wo_entrp">   -283.80524948 </i>
    <i name="e_0_energy">   -283.85529518 </i>
   </energy>
  </scstep>
  <scstep>
   <time name="diag">    0.52    0.73</time>
   <time name="diis">    2.81    3.81</time>
   <time name="orth">    0.11    0.12</time>
   <time name="total">    3.86    5.14</time>
   <energy>
    <i name="e_fr_energy">   -280.41750086 </i>
    <i name="e_wo_entrp">   -280.31442542 </i>
    <i name="e_0_energy">   -280.38314238 </i>
   </energy>
  </scstep>
  <scstep>
   <time name="diag">    0.33    0.50</time>
   <time name="diis">    2.72    3.95</time>
   <time name="orth">    0.12    0.19</time>
   <time name="total">    3.45    4.96</time>
   <energy>
    <i name="e_fr_energy">   -278.52443141 </i>
    <i name="e_wo_entrp">   -278.51990081 </i>
    <i name="e_0_energy">   -278.52292121 </i>
   </energy>
  </scstep>
  <scstep>
   <time name="diag">    0.39    0.61</time>
   <time name="diis">    2.49    3.85</time>
   <time name="orth">    0.10    0.15</time>
   <time name="total">    3.27    5.08</time>
   <energy>
    <i name="e_fr_energy">   -278.72525152 </i>
    <i name="e_wo_entrp">   -278.70447478 </i>
    <i name="e_0_energy">   -278.71832594 </i>
   </energy>
  </scstep>
  <scstep>
   <time name="diag">    0.45    0.52</time>
   <time name="diis">    2.51    3.57</time>
   <time name="orth">    0.10    0.16</time>
   <time name="total">    3.32    4.66</time>
   <energy>
    <i name="e_fr_energy">   -278.09725420 </i>
    <i name="e_wo_entrp">   -278.10508461 </i>
    <i name="e_0_energy">   -278.09986434 </i>
   </energy>
  </scstep>
  <scstep>
   <time name="diag">    0.33    0.51</time>
   <time name="diis">    2.42    3.65</time>
   <time name="orth">    0.14    0.19</time>
   <time name="total">    3.16    4.74</time>
   <energy>
    <i name="e_fr_energy">   -277.80195720 </i>
    <i name="e_wo_entrp">   -277.76840456 </i>
    <i name="e_0_energy">   -277.79077299 </i>
   </energy>
  </scstep>
  <scstep>
   <time name="diag">    0.36    0.51</time>
   <time name="diis">    2.48    3.65</time>
   <time name="orth">    0.09    0.17</time>
   <time name="total">    3.23    4.80</time>
   <energy>
    <i name="e_fr_energy">   -277.63178370 </i>
    <i name="e_wo_entrp">   -277.54122030 </i>
    <i name="e_0_energy">   -277.60159590 </i>
   </energy>
  </scstep>
  <scstep>
   <time name="diag">    0.42    0.58</time>
   <time name="diis">    2.93    3.88</time>
   <time name="orth">    0.15    0.24</time>
   <time name="total">    3.80    5.15</time>
   <energy>
    <i name="e_fr_energy">   -277.72197517 </i>
    <i name="e_wo_entrp">   -277.70433988 </i>
    <i name="e_0_energy">   -277.71609674 </i>
   </energy>
  </scstep>
  <scstep>
   <time name="diag">    0.38    0.60</time>
   <time name="diis">    2.51    3.73</time>
   <time name="orth">    0.12    0.17</time>
   <time name="total">    3.43    5.01</time>
   <energy>
    <i name="e_fr_energy">   -277.63364849 </i>
    <i name="e_wo_entrp">   -277.64505185 </i>
    <i name="e_0_energy">   -277.63744961 </i>
   </energy>
  </scstep>
  <scstep>
   <time name="diag">    0.41    0.60</time>
   <time name="diis">    2.66    3.91</time>
   <time name="orth">    0.16    0.24</time>
   <time name="total">    3.63    5.24</time>
   <energy>
    <i name="e_fr_energy">   -277.12423186 </i>
    <i name="e_wo_entrp">   -277.16531927 </i>
    <i name="e_0_energy">   -277.13792766 </i>
   </energy>
  </scstep>
  <scstep>
   <time name="diag">    0.50    0.73</time>
   <time name="diis">    2.73    4.04</time>
   <time name="orth">    0.14    0.20</time>
   <time name="total">    3.83    5.68</time>
   <energy>
    <i name="e_fr_energy">   -276.92369577 </i>
    <i name="e_wo_entrp">   -276.95768137 </i>
    <i name="e_0_energy">   -276.93502431 </i>
   </energy>
  </scstep>
  <scstep>
   <time name="diag">    0.32    0.44</time>
   <time name="diis">    2.85    4.32</time>
   <time name="orth">    0.16    0.21</time>
   <time name="total">    3.67    5.46</time>
   <energy>
    <i name="e_fr_energy">   -276.87359023 </i>
    <i name="e_wo_entrp">   -276.93428676 </i>
    <i name="e_0_energy">   -276.89382241 </i>
   </energy>
  </scstep>
  <scstep>
   <time name="diag">    0.48    0.69</time>
   <time name="diis">    2.61    4.00</time>
   <time name="orth">    0.10    0.15</time>
   <time name="total">    3.48    5.28</time>
   <energy>
    <i name="e_fr_energy">   -276.81570671 </i>
    <i name="e_wo_entrp">   -276.85063257 </i>
    <i name="e_0_energy">   -276.82734866 </i>
   </energy>
  </scstep>
  <scstep>
   <time name="diag">    0.38    0.56</time>
   <time name="diis">    2.73    4.17</time>
   <time name="orth">    0.14    0.18</time>
   <time name="total">    3.61    5.40</time>
   <energy>
    <i name="e_fr_energy">   -276.82313067 </i>
    <i name="e_wo_entrp">   -276.86492254 </i>
    <i name="e_0_energy">   -276.83706129 </i>
   </energy>
  </scstep>
  <scstep>
   <time name="diag">    0.39    0.57</time>
   <time name="diis">    3.10    3.68</time>
   <time name="orth">    0.10    0.12</time>
   <time name="total">    3.90    4.73</time>
   <energy>
    <i name="e_fr_energy">   -276.81436677 </i>
    <i name="e_wo_entrp">   -276.86544944 </i>
    <i name="e_0_energy">   -276.83139432 </i>
   </energy>
  </scstep>
  <scstep>
   <time name="diag">    0.39    0.45</time>
   <time name="diis">    2.28    3.51</time>
   <time name="orth">    0.12    0.13</time>
   <time name="total">    3.05    4.39</time>
   <energy>
    <i name="e_fr_energy">   -276.81946565 </i>
    <i name="e_wo_entrp">   -276.85954633 </i>
    <i name="e_0_energy">   -276.83282588 </i>
   </energy>
  </scstep>
  <scstep>
   <time name="diag">    0.41    0.41</time>
   <time name="diis">    2.15    3.06</time>
   <time name="orth">    0.12    0.19</time>
   <time name="total">    2.96    4.04</time>
   <energy>
    <i name="e_fr_energy">   -276.82004831 </i>
    <i name="e_wo_entrp">   -276.86208407 </i>
    <i name="e_0_energy">   -276.83406023 </i>
   </energy>
  </scstep>
  <scstep>
   <time name="diag">    0.40    0.54</time>
   <time name="diis">    2.23    3.15</time>
   <time name="orth">    0.09    0.14</time>
   <time name="total">    3.00    4.27</time>
   <energy>
    <i name="e_fr_energy">   -276.82155197 </i>
    <i name="e_wo_entrp">   -276.87055807 </i>
    <i name="e_0_energy">   -276.83788734 </i>
   </energy>
  </scstep>
  <scstep>
   <time name="diag">    0.27    0.39</time>
   <time name="diis">    1.72    2.61</time>
   <time name="orth">    0.09    0.13</time>
   <time name="total">    2.32    3.50</time>
   <energy>
    <i name="e_fr_energy">   -276.81688043 </i>
    <i name="e_wo_entrp">   -276.86811563 </i>
    <i name="e_0_energy">   -276.83395883 </i>
   </energy>
  </scstep>
  <scstep>
   <time name="diag">    0.30    0.60</time>
   <time name="diis">    1.36    2.10</time>
   <time name="orth">    0.10    0.12</time>
   <time name="total">    2.01    3.26</time>
   <energy>
    <i name="e_fr_energy">   -276.81929627 </i>
    <i name="e_wo_entrp">   -276.86852048 </i>
    <i name="e_0_energy">   -276.83570434 </i>
   </energy>
  </scstep>
  <scstep>
   <time name="diag">    0.33    0.46</time>
   <time name="diis">    2.05    2.43</time>
   <time name="orth">    0.13    0.16</time>
   <time name="total">    2.79    3.38</time>
   <energy>
    <i name="e_fr_energy">   -276.81886281 </i>
    <i name="e_wo_entrp">   -276.87160920 </i>
    <i name="e_0_energy">   -276.83644494 </i>
   </energy>
  </scstep>
  <scstep>
   <time name="diag">    0.35    0.41</time>
   <time name="diis">    1.47    1.78</time>
   <time name="orth">    0.08    0.13</time>
   <time name="total">    2.13    2.66</time>
   <energy>
    <i name="e_fr_energy">   -276.81835552 </i>
    <i name="e_wo_entrp">   -276.87306900 </i>
    <i name="e_0_energy">   -276.83659334 </i>
   </energy>
  </scstep>
  <scstep>
   <time name="diag">    0.38    0.44</time>
   <time name="diis">    1.46    1.95</time>
   <time name="orth">    0.08    0.16</time>
   <time name="total">    2.09    2.89</time>
   <energy>
    <i name="alphaZ">   1136.56246079 </i>
    <i name="ewald"> -19695.81823430 </i>
    <i name="hartreedc"> -12343.49431973 </i>
    <i name="XCdc">   1356.61533012 </i>
    <i name="pawpsdc">  32622.50820047 </i>
    <i name="pawaedc"> -32927.17351225 </i>
    <i name="eentropy">      0.05694134 </i>
    <i name="bandstr">  -2766.42315841 </i>
    <i name="atom">  32340.34786160 </i>
    <i name="e_fr_energy">   -276.81843038 </i>
    <i name="e_wo_entrp">   -276.87537172 </i>
    <i name="e_0_energy">   -276.83741083 </i>
   </energy>
  </scstep>
  <structure>
   <crystal>
    <varray name="basis" >
     <v>       9.40119100       0.00000000      -0.08412900 </v>
     <v>       0.00000000       5.35946700       0.00000000 </v>
     <v>       0.00000000       0.00000000      14.95565100 </v>
    </varray>
    <i name="volume">    753.54605297 </i>
    <varray name="rec_basis" >
     <v>       0.10636950       0.00000000       0.00000000 </v>
     <v>       0.00000000       0.18658572       0.00000000 </v>
     <v>       0.00059835       0.00000000       0.06686436 </v>
    </varray>
   </crystal>
   <varray name="positions" >
    <v>       0.16411200       0.48397600       0.17995900 </v>
    <v>       0.16411200       0.51602400       0.67995900 </v>
    <v>       0.66411200       0.98397600       0.17995900 </v>
    <v>       0.66411200       0.01266800       0.67995900 </v>
    <v>       0.17533200       0.47285200       0.97303200 </v>
    <v>       0.17533200       0.52714800       0.47303200 </v>
    <v>       0.67533200       0.97285200       0.96651900 </v>
    <v>       0.67533200       0.02714800       0.47303200 </v>
    <v>       0.33162900       0.02941400       0.82240100 </v>
    <v>       0.33162900       0.97058600       0.32240100 </v>
    <v>       0.83162900       0.52941400       0.82240100 </v>
    <v>       0.83162900       0.47058600       0.31509100 </v>
    <v>       0.33361900       0.00432000       0.51711500 </v>
    <v>       0.33361900       0.99568000       0.01711500 </v>
    <v>       0.83361900       0.50432000       0.51711500 </v>
    <v>       0.83361900       0.49568000       0.01711500 </v>
    <v>       0.30926400       0.26740800       0.92544800 </v>
    <v>       0.30926400       0.73259200       0.42544800 </v>
    <v>       0.80926400       0.76740800       0.92857300 </v>
    <v>       0.80926400       0.23259200       0.42544800 </v>
    <v>       0.00386100       0.36884200       0.24394900 </v>
    <v>       0.00386100       0.62580300       0.73448300 </v>
    <v>       0.50386100       0.86884200       0.24394900 </v>
    <v>       0.50386100       0.13115800       0.74394900 </v>
    <v>       0.02591400       0.40423800       0.56952300 </v>
    <v>       0.02591400       0.60462300       0.07915900 </v>
    <v>       0.52591400       0.89537700       0.57915900 </v>
    <v>       0.52591400       0.10462300       0.07915900 </v>
    <v>       0.17611800       0.21417000       0.08350500 </v>
    <v>       0.17611800       0.78583000       0.58350500 </v>
    <v>       0.67611800       0.71417000       0.08350500 </v>
    <v>       0.67611800       0.28583000       0.58350500 </v>
    <v>       0.18147400       0.20344500       0.73945400 </v>
    <v>       0.18147400       0.79655500       0.23945400 </v>
    <v>       0.68147400       0.70344500       0.73945400 </v>
    <v>       0.68147400       0.29655500       0.23945400 </v>
    <v>       0.18900300       0.20186000       0.42366300 </v>
    <v>       0.18900300       0.79814000       0.92366300 </v>
    <v>       0.68900300       0.70186000       0.42142700 </v>
    <v>       0.68900300       0.29814000       0.92366300 </v>
    <v>       0.29347700       0.34686800       0.57827500 </v>
    <v>       0.29347700       0.64445200       0.07827500 </v>
    <v>       0.79347700       0.84928900       0.57827500 </v>
    <v>       0.79347700       0.15313200       0.07827500 </v>
    <v>       0.30310600       0.31251000       0.24801900 </v>
    <v>       0.30310600       0.69438900       0.74801900 </v>
    <v>       0.80310600       0.80561100       0.24801900 </v>
    <v>       0.80310600       0.19438900       0.74801900 </v>
    <v>       0.49071400       0.13464800       0.42295500 </v>
    <v>       0.49071400       0.86535200       0.92185000 </v>
    <v>       0.99071400       0.63464800       0.42295500 </v>
    <v>       0.99785200       0.36535200       0.92295500 </v>
   </varray>
  </structure>
  <varray name="forces" >
   <v>       0.14909043       0.27235291      -0.57940407 </v>
   <v>       0.88856011      -0.33938800      -0.79665446 </v>
   <v>       0.06340820       0.10587359      -0.74141598 </v>
   <v>       0.09566692       0.07170690      -0.49918572 </v>
   <v>       0.63441362      -0.72119532       1.42816126 </v>
   <v>       0.17136987       0.77631753       1.29838785 </v>
   <v>       0.20822109      -0.88024316       1.86583685 </v>
   <v>       0.44738130       0.73063966       1.11514257 </v>
   <v>      -0.43405142       1.03844367      -0.03064950 </v>
   <v>      -0.42388465      -1.08040518       0.04089235 </v>
   <v>      -0.51402269       0.87795355      -0.09528372 </v>
   <v>      -0.50429487      -0.79419616       0.31012054 </v>
   <v>       0.23684333      -1.22173812      -1.36787720 </v>
   <v>       0.28819099       1.29661655      -1.28835742 </v>
   <v>       0.26406170      -1.31958637      -1.85902070 </v>
   <v>       0.11975278       1.27357029      -1.04017132 </v>
   <v>      -0.33219817      -1.74962223       0.19947342 </v>
   <v>      -0.33960914       1.73471346       0.12429764 </v>
   <v>       0.01132308      -1.93065309      -0.50877187 </v>
   <v>      -0.49124326       1.59430107       0.31351243 </v>
   <v>      -0.38503606       0.17359187       0.30371262 </v>
   <v>      -0.87266281       0.05740893       0.86532099 </v>
   <v>      -0.34874528       0.24297888       0.38085261 </v>
   <v>      -0.32342704      -0.26670921       0.35676997 </v>
   <v>      -0.66037090      -0.01922412      -0.03658853 </v>
   <v>      -0.63863379      -0.24447423      -0.33943609 </v>
   <v>      -0.65063454       0.21281598      -0.36440383 </v>
   <v>      -0.83526774      -0.26333845      -0.31830546 </v>
   <v>       0.17863088      -0.38964734      -0.39168147 </v>
   <v>       0.26427563       0.38327818      -0.40752612 </v>
   <v>       0.22099430      -0.36001349      -0.24846590 </v>
   <v>       0.23253740       0.29910044      -0.42992955 </v>
   <v>       0.65623479       0.10554252       0.61976492 </v>
   <v>       0.69230534      -0.05703877       0.62128735 </v>
   <v>       0.70624163       0.02310539       0.71280266 </v>
   <v>       0.74598895      -0.03813930       0.55736874 </v>
   <v>       0.54233783      -0.27358815       0.01631942 </v>
   <v>       0.48552329       0.26852946       0.03842491 </v>
   <v>       0.44518201      -0.10332911       0.25064990 </v>
   <v>       0.56122338       0.54997263      -0.17339526 </v>
   <v>       0.19635093       0.09419928      -0.35368126 </v>
   <v>       0.21450774       0.03469945      -0.38223443 </v>
   <v>       0.18942699       0.09739209      -0.35466195 </v>
   <v>       0.23362405       0.00775723      -0.30062354 </v>
   <v>      -0.17340076      -0.32815370       0.34604202 </v>
   <v>      -0.26992553       0.18785185       0.31672671 </v>
   <v>      -0.16125140      -0.28654421       0.27950910 </v>
   <v>      -0.20995438       0.14994913       0.30421525 </v>
   <v>      -0.29104626      -0.44354799       0.20221073 </v>
   <v>      -0.41490774       0.44809487       0.01143627 </v>
   <v>      -0.27157337      -0.35105908       0.03516997 </v>
   <v>      -0.59752675       0.35307743      -0.00668369 </v>
  </varray>
  <varray name="stress" >
   <v>    -201.26624833      -0.85035238      -1.15139335 </v>
   <v>      -0.85035249    -208.28197495      -0.09392095 </v>
   <v>      -1.15139449      -0.09391976    -232.73180580 </v>
  </varray>
  <energy>
   <i name="e_fr_energy">   -276.81843038 </i>
   <i name="e_wo_entrp">   -276.83741083 </i>
   <i name="e_0_energy">      0.05694134 </i>
  </energy>
  <time name="totalsc">  169.13  239.45</time>
  <eigenvalues>
   <array>
    <dimension dim="1">band</dimension>
    <dimension dim="2">kpoint</dimension>
    <dimension dim="3">spin</dimension>
    <field>eigene</field>
    <field>occ</field>
    <set>
     <set comment="spin 1">
      <set comment="kpoint 1">
       <r>  -23.9212    1.0000 </r>
       <r>  -23.8368    1.0000 </r>
       <r>  -23.8047    1.0000 </r>
       <r>  -23.7787    1.0000 </r>
       <r>  -23.7167    1.0000 </r>
       <r>  -23.6275    1.0000 </r>
       <r>  -23.6119    1.0000 </r>
       <r>  -23.5359    1.0000 </r>
       <r>  -23.5063    1.0000 </r>
       <r>  -23.4806    1.0000 </r>
       <r>  -23.4521    1.0000 </r>
       <r>  -23.3415    1.0000 </r>
       <r>  -23.3042    1.0000 </r>
       <r>  -23.2842    1.0000 </r>
       <r>  -23.2451    1.0000 </r>
       <r>  -23.2315    1.0000 </r>
       <r>  -23.2166    1.0000 </r>
       <r>  -23.1931    1.0000 </r>
       <r>  -23.1855    1.0000 </r>
       <r>  -23.1358    1.0000 </r>
       <r>  -23.1079    1.0000 </r>
       <r>  -23.0905    1.0000 </r>
       <r>  -23.0558    1.0000 </r>
       <r>  -23.0446    1.0000 </r>
       <r>  -23.0203    1.0000 </r>
       <r>  -22.9979    1.0000 </r>
       <r>  -22.9757    1.0000 </r>
       <r>  -22.9503    1.0000 </r>
       <r>  -22.8779    1.0000 </r>
       <r>  -22.8210    1.0000 </r>
       <r>  -22.7772    1.0000 </r>
       <r>  -22.7614    1.0000 </r>
       <r>  -18.9235    1.0000 </r>
       <r>  -18.6920    1.0000 </r>
       <r>  -18.6723    1.0000 </r>
       <r>  -18.5050    1.0000 </r>
       <r>   -7.0217    1.0000 </r>
       <r>   -6.9193    1.0000 </r>
       <r>   -6.9096    1.0000 </r>
       <r>   -6.8461    1.0000 </r>
       <r>   -6.7563    1.0000 </r>
       <r>   -6.7267    1.0000 </r>
       <r>   -6.7007    1.0000 </r>
       <r>   -6.5870    1.0000 </r>
       <r>   -6.4878    1.0000 </r>
       <r>   -6.4159    1.0000 </r>
       <r>   -6.3818    1.0000 </r>
       <r>   -6.2642    1.0000 </r>
       <r>   -6.2458    1.0000 </r>
       <r>   -6.2437    1.0000 </r>
       <r>   -6.1778    1.0000 </r>
       <r>   -6.1481    1.0000 </r>
       <r>   -6.1124    1.0000 </r>
       <r>   -6.0797    1.0000 </r>
       <r>   -6.0567    1.0000 </r>
       <r>   -6.0446    1.0000 </r>
       <r>   -6.0202    1.0000 </r>
       <r>   -5.9977    1.0000 </r>
       <r>   -5.9682    1.0000 </r>
       <r>   -5.9435    1.0000 </r>
       <r>   -5.9180    1.0000 </r>
       <r>   -5.9148    1.0000 </r>
       <r>   -5.8947    1.0000 </r>
       <r>   -5.8814    1.0000 </r>
       <r>   -5.8671    1.0000 </r>
       <r>   -5.8325    1.0000 </r>
       <r>   -5.8149    1.0000 </r>
       <r>   -5.7888    1.0000 </r>
       <r>   -5.7386    1.0000 </r>
       <r>   -5.7326    1.0000 </r>
       <r>   -5.6870    1.0000 </r>
       <r>   -5.6601    1.0000 </r>
       <r>   -5.6571    1.0000 </r>
       <r>   -5.6166    1.0000 </r>
       <r>   -5.5774    1.0000 </r>
       <r>   -5.5510    1.0000 </r>
       <r>   -5.5323    1.0000 </r>
       <r>   -5.4943    1.0000 </r>
       <r>   -5.4741    1.0000 </r>
       <r>   -5.4290    1.0000 </r>
       <r>   -5.4087    1.0000 </r>
       <r>   -5.3686    1.0000 </r>
       <r>   -5.2321    1.0000 </r>
       <r>   -5.2142    1.0000 </r>
       <r>   -5.1875    1.0000 </r>
       <r>   -5.1624    1.0000 </r>
       <r>   -5.1114    1.0000 </r>
       <r>   -5.0744    1.0000 </r>
       <r>   -5.0567    1.0000 </r>
       <r>   -5.0019    1.0000 </r>
       <r>   -4.9855    1.0000 </r>
       <r>   -4.9484    1.0000 </r>
       <r>   -4.8494    1.0000 </r>
       <r>   -4.8429    1.0000 </r>
       <r>   -4.8093    1.0000 </r>
       <r>   -4.7658    1.0000 </r>
       <r>   -4.7501    1.0000 </r>
       <r>   -4.7199    1.0000 </r>
       <r>   -4.6962    1.0000 </r>
       <r>   -4.6597    1.0000 </r>
       <r>   -4.6278    1.0000 </r>
       <r>   -4.6159    1.0000 </r>
       <r>   -4.5888    1.0000 </r>
       <r>   -4.5541    1.0000 </r>
       <r>   -4.5396    1.0000 </r>
       <r>   -4.5070    1.0000 </r>
       <r>   -4.4738    1.0000 </r>
       <r>   -4.4562    1.0000 </r>
       <r>   -4.4440    1.0000 </r>
       <r>   -4.4167    1.0000 </r>
       <r>   -4.3540    1.0000 </r>
       <r>   -4.3363    1.0000 </r>
       <r>   -4.2977    1.0000 </r>
       <r>   -4.2833    1.0000 </r>
       <r>   -4.2403    1.0000 </r>
       <r>   -4.1686    1.0000 </r>
       <r>   -4.1434    1.0000 </r>
       <r>   -4.1126    1.0000 </r>
       <r>   -4.1034    1.0000 </r>
       <r>   -4.0964    1.0000 </r>
       <r>   -4.0431    1.0000 </r>
       <r>   -4.0329    1.0000 </r>
       <r>   -4.0226    1.0000 </r>
       <r>   -3.9827    1.0000 </r>
       <r>   -3.9522    1.0000 </r>
       <r>   -3.9404    1.0000 </r>
       <r>   -3.8600    1.0000 </r>
       <r>   -3.8439    1.0000 </r>
       <r>   -3.8385    1.0000 </r>
       <r>   -3.8192    1.0000 </r>
       <r>   -3.7859    1.0000 </r>
       <r>   -3.7670    1.0000 </r>
       <r>   -3.7601    1.0000 </r>
       <r>   -3.7265    1.0000 </r>
       <r>   -3.6993    1.0000 </r>
       <r>   -3.6701    1.0000 </r>
       <r>   -3.6319    1.0000 </r>
       <r>   -3.6032    1.0000 </r>
       <r>   -3.5794    1.0000 </r>
       <r>   -3.5389    1.0000 </r>
       <r>   -3.5275    1.0000 </r>
       <r>   -3.4735    1.0000 </r>
       <r>   -3.4357    1.0000 </r>
       <r>   -3.4213    1.0000 </r>
       <r>   -0.8422    1.0000 </r>
       <r>   -0.8039    1.0000 </r>
       <r>   -0.7615    1.0000 </r>
       <r>   -0.7317    1.0000 </r>
       <r>   -0.7152    1.0001 </r>
       <r>   -0.7113    1.0001 </r>
       <r>   -0.6751    1.0002 </r>
       <r>   -0.6480    1.0003 </r>
       <r>   -0.6334    1.0005 </r>
       <r>   -0.6172    1.0007 </r>
       <r>   -0.6135    1.0007 </r>
       <r>   -0.5938    1.0011 </r>
       <r>   -0.5847    1.0014 </r>
       <r>   -0.5656    1.0021 </r>
       <r>   -0.5570    1.0025 </r>
       <r>   -0.5270    1.0045 </r>
       <r>   -0.5076    1.0063 </r>
       <r>   -0.4602    1.0132 </r>
       <r>   -0.4509    1.0149 </r>
       <r>   -0.4300    1.0193 </r>
       <r>   -0.4292    1.0195 </r>
       <r>   -0.4120    1.0234 </r>
       <r>   -0.4086    1.0242 </r>
       <r>   -0.3926    1.0278 </r>
       <r>   -0.3803    1.0305 </r>
       <r>   -0.3722    1.0320 </r>
       <r>   -0.3582    1.0341 </r>
       <r>   -0.3515    1.0349 </r>
       <r>   -0.3421    1.0354 </r>
       <r>   -0.3378    1.0355 </r>
       <r>   -0.3228    1.0344 </r>
       <r>   -0.3004    1.0284 </r>
       <r>   -0.2951    1.0259 </r>
       <r>   -0.2760    1.0135 </r>
       <r>   -0.2543    0.9911 </r>
       <r>   -0.2342    0.9612 </r>
       <r>   -0.2228    0.9398 </r>
       <r>   -0.1920    0.8661 </r>
       <r>   -0.1785    0.8262 </r>
       <r>   -0.1752    0.8159 </r>
       <r>   -0.1655    0.7839 </r>
       <r>   -0.1534    0.7415 </r>
       <r>   -0.1371    0.6799 </r>
       <r>   -0.1225    0.6215 </r>
       <r>   -0.0785    0.4368 </r>
       <r>   -0.0670    0.3890 </r>
       <r>   -0.0513    0.3260 </r>
       <r>   -0.0053    0.1642 </r>
       <r>    0.0064    0.1303 </r>
       <r>    0.0462    0.0406 </r>
       <r>    0.0610    0.0174 </r>
       <r>    0.0839   -0.0090 </r>
       <r>    0.1077   -0.0257 </r>
       <r>    0.1489   -0.0354 </r>
       <r>    0.1679   -0.0345 </r>
       <r>    0.1931   -0.0305 </r>
       <r>    0.2301   -0.0222 </r>
       <r>    0.2507   -0.0177 </r>
       <r>    0.2576   -0.0162 </r>
       <r>    0.3239   -0.0060 </r>
       <r>    0.4130   -0.0010 </r>
       <r>    0.4562   -0.0004 </r>
       <r>    0.4962   -0.0001 </r>
       <r>    0.5475   -0.0000 </r>
       <r>    0.5655   -0.0000 </r>
       <r>    0.7288   -0.0000 </r>
       <r>    0.7419   -0.0000 </r>
       <r>    0.7747   -0.0000 </r>
       <r>    0.7838   -0.0000 </r>
       <r>    0.7893   -0.0000 </r>
       <r>    0.8579   -0.0000 </r>
       <r>    1.0059   -0.0000 </r>
       <r>    1.0165   -0.0000 </r>
       <r>    1.0367   -0.0000 </r>
       <r>    1.0957   -0.0000 </r>
       <r>    1.1222   -0.0000 </r>
       <r>    1.1675   -0.0000 </r>
       <r>    1.1820   -0.0000 </r>
       <r>    1.2486   -0.0000 </r>
       <r>    1.2959   -0.0000 </r>
       <r>    3.3444   -0.0000 </r>
       <r>    4.2020   -0.0000 </r>
       <r>    4.6148   -0.0000 </r>
       <r>    5.2212   -0.0000 </r>
      </set>
     </set>
    </set>
   </array>
  </eigenvalues>
  <separator name="orbital magnetization" >
   <v name="MAGDIPOLOUT">      0.00000000      0.00000000      0.00000000</v>
  </separator>
  <dos>
   <i name="efermi">     -0.09346980 </i>
   <total>
    <array>
     <dimension dim="1">gridpoints</dimension>
     <dimension dim="2">spin</dimension>
     <field>energy</field>
     <field>total</field>
     <field>integrated</field>
     <set>
      <set comment="spin 1">
       <r>   -25.9212     0.0000     0.0000 </r>
       <r>   -25.8107     0.0000     0.0000 </r>
       <r>   -25.7002     0.0000     0.0000 </r>
       <r>   -25.5897    -0.0000    -0.0000 </r>
       <r>   -25.4793    -0.0000    -0.0000 </r>
       <r>   -25.3688    -0.0000    -0.0000 </r>
       <r>   -25.2583    -0.0000    -0.0000 </r>
       <r>   -25.1478    -0.0000    -0.0000 </r>
       <r>   -25.0374    -0.0000    -0.0000 </r>
       <r>   -24.9269    -0.0000    -0.0000 </r>
       <r>   -24.8164    -0.0000    -0.0000 </r>
       <r>   -24.7060    -0.0000    -0.0000 </r>
       <r>   -24.5955    -0.0002    -0.0000 </r>
       <r>   -24.4850    -0.0049    -0.0006 </r>
       <r>   -24.3745    -0.0653    -0.0078 </r>
       <r>   -24.2641    -0.4312    -0.0554 </r>
       <r>   -24.1536    -1.1708    -0.1848 </r>
       <r>   -24.0431     0.6562    -0.1123 </r>
       <r>   -23.9326    11.4213     1.1495 </r>
       <r>   -23.8222    28.5383     4.3022 </r>
       <r>   -23.7117    38.3464     8.5385 </r>
       <r>   -23.6012    40.4440    13.0066 </r>
       <r>   -23.4907    41.8010    17.6245 </r>
       <r>   -23.3803    43.6533    22.4471 </r>
       <r>   -23.2698    57.2124    28.7676 </r>
       <r>   -23.1593    77.4657    37.3256 </r>
       <r>   -23.0488    82.9738    46.4921 </r>
       <r>   -22.9384    69.8993    54.2142 </r>
       <r>   -22.8279    49.4579    59.6781 </r>
       <r>   -22.7174    29.9900    62.9912 </r>
       <r>   -22.6069    11.0594    64.2130 </r>
       <r>   -22.4965    -0.0094    64.2120 </r>
       <r>   -22.3860    -1.4281    64.0542 </r>
       <r>   -22.2755    -0.4327    64.0064 </r>
       <r>   -22.1650    -0.0544    64.0004 </r>
       <r>   -22.0546    -0.0033    64.0000 </r>
       <r>   -21.9441    -0.0001    64.0000 </r>
       <r>   -21.8336    -0.0000    64.0000 </r>
       <r>   -21.7231    -0.0000    64.0000 </r>
       <r>   -21.6127    -0.0000    64.0000 </r>
       <r>   -21.5022    -0.0000    64.0000 </r>
       <r>   -21.3917     0.0000    64.0000 </r>
       <r>   -21.2812     0.0000    64.0000 </r>
       <r>   -21.1708     0.0000    64.0000 </r>
       <r>   -21.0603     0.0000    64.0000 </r>
       <r>   -20.9498     0.0000    64.0000 </r>
       <r>   -20.8393     0.0000    64.0000 </r>
       <r>   -20.7289     0.0000    64.0000 </r>
       <r>   -20.6184    -0.0000    64.0000 </r>
       <r>   -20.5079    -0.0000    64.0000 </r>
       <r>   -20.3974    -0.0000    64.0000 </r>
       <r>   -20.2870    -0.0000    64.0000 </r>
       <r>   -20.1765    -0.0000    64.0000 </r>
       <r>   -20.0660    -0.0000    64.0000 </r>
       <r>   -19.9555    -0.0000    64.0000 </r>
       <r>   -19.8451    -0.0000    64.0000 </r>
       <r>   -19.7346    -0.0000    64.0000 </r>
       <r>   -19.6241    -0.0001    64.0000 </r>
       <r>   -19.5136    -0.0021    63.9998 </r>
       <r>   -19.4032    -0.0305    63.9964 </r>
       <r>   -19.2927    -0.2003    63.9743 </r>
       <r>   -19.1822    -0.4398    63.9257 </r>
       <r>   -19.0717     0.8050    64.0146 </r>
       <r>   -18.9613     4.8786    64.5536 </r>
       <r>   -18.8508     8.9355    65.5407 </r>
       <r>   -18.7403    13.4038    67.0215 </r>
       <r>   -18.6298    18.3256    69.0460 </r>
       <r>   -18.5194    16.4485    70.8632 </r>
       <r>   -18.4089     8.9403    71.8508 </r>
       <r>   -18.2984     2.2374    72.0980 </r>
       <r>   -18.1879    -0.4084    72.0529 </r>
       <r>   -18.0775    -0.3852    72.0103 </r>
       <r>   -17.9670    -0.0849    72.0010 </r>
       <r>   -17.8565    -0.0083    72.0000 </r>
       <r>   -17.7460    -0.0004    72.0000 </r>
       <r>   -17.6356    -0.0000    72.0000 </r>
       <r>   -17.5251    -0.0000    72.0000 </r>
       <r>   -17.4146    -0.0000    72.0000 </r>
       <r>   -17.3041    -0.0000    72.0000 </r>
       <r>   -17.1937    -0.0000    72.0000 </r>
       <r>   -17.0832     0.0000    72.0000 </r>
       <r>   -16.9727     0.0000    72.0000 </r>
       <r>   -16.8622     0.0000    72.0000 </r>
       <r>   -16.7518     0.0000    72.0000 </r>
       <r>   -16.6413     0.0000    72.0000 </r>
       <r>   -16.5308     0.0000    72.0000 </r>
       <r>   -16.4203     0.0000    72.0000 </r>
       <r>   -16.3099     0.0000    72.0000 </r>
       <r>   -16.1994     0.0000    72.0000 </r>
       <r>   -16.0889     0.0000    72.0000 </r>
       <r>   -15.9784     0.0000    72.0000 </r>
       <r>   -15.8680     0.0000    72.0000 </r>
       <r>   -15.7575     0.0000    72.0000 </r>
       <r>   -15.6470     0.0000    72.0000 </r>
       <r>   -15.5366     0.0000    72.0000 </r>
       <r>   -15.4261     0.0000    72.0000 </r>
       <r>   -15.3156     0.0000    72.0000 </r>
       <r>   -15.2051     0.0000    72.0000 </r>
       <r>   -15.0947     0.0000    72.0000 </r>
       <r>   -14.9842     0.0000    72.0000 </r>
       <r>   -14.8737     0.0000    72.0000 </r>
       <r>   -14.7632     0.0000    72.0000 </r>
       <r>   -14.6528     0.0000    72.0000 </r>
       <r>   -14.5423     0.0000    72.0000 </r>
       <r>   -14.4318     0.0000    72.0000 </r>
       <r>   -14.3213     0.0000    72.0000 </r>
       <r>   -14.2109     0.0000    72.0000 </r>
       <r>   -14.1004     0.0000    72.0000 </r>
       <r>   -13.9899     0.0000    72.0000 </r>
       <r>   -13.8794     0.0000    72.0000 </r>
       <r>   -13.7690     0.0000    72.0000 </r>
       <r>   -13.6585     0.0000    72.0000 </r>
       <r>   -13.5480     0.0000    72.0000 </r>
       <r>   -13.4375     0.0000    72.0000 </r>
       <r>   -13.3271     0.0000    72.0000 </r>
       <r>   -13.2166     0.0000    72.0000 </r>
       <r>   -13.1061     0.0000    72.0000 </r>
       <r>   -12.9956     0.0000    72.0000 </r>
       <r>   -12.8852     0.0000    72.0000 </r>
       <r>   -12.7747     0.0000    72.0000 </r>
       <r>   -12.6642     0.0000    72.0000 </r>
       <r>   -12.5537     0.0000    72.0000 </r>
       <r>   -12.4433     0.0000    72.0000 </r>
       <r>   -12.3328     0.0000    72.0000 </r>
       <r>   -12.2223     0.0000    72.0000 </r>
       <r>   -12.1118     0.0000    72.0000 </r>
       <r>   -12.0014     0.0000    72.0000 </r>
       <r>   -11.8909     0.0000    72.0000 </r>
       <r>   -11.7804     0.0000    72.0000 </r>
       <r>   -11.6699     0.0000    72.0000 </r>
       <r>   -11.5595     0.0000    72.0000 </r>
       <r>   -11.4490     0.0000    72.0000 </r>
       <r>   -11.3385     0.0000    72.0000 </r>
       <r>   -11.2280     0.0000    72.0000 </r>
       <r>   -11.1176     0.0000    72.0000 </r>
       <r>   -11.0071     0.0000    72.0000 </r>
       <r>   -10.8966     0.0000    72.0000 </r>
       <r>   -10.7861     0.0000    72.0000 </r>
       <r>   -10.6757     0.0000    72.0000 </r>
       <r>   -10.5652     0.0000    72.0000 </r>
       <r>   -10.4547     0.0000    72.0000 </r>
       <r>   -10.3442     0.0000    72.0000 </r>
       <r>   -10.2338     0.0000    72.0000 </r>
       <r>   -10.1233     0.0000    72.0000 </r>
       <r>   -10.0128     0.0000    72.0000 </r>
       <r>    -9.9023     0.0000    72.0000 </r>
       <r>    -9.7919     0.0000    72.0000 </r>
       <r>    -9.6814     0.0000    72.0000 </r>
       <r>    -9.5709     0.0000    72.0000 </r>
       <r>    -9.4604     0.0000    72.0000 </r>
       <r>    -9.3500     0.0000    72.0000 </r>
       <r>    -9.2395     0.0000    72.0000 </r>
       <r>    -9.1290     0.0000    72.0000 </r>
       <r>    -9.0185     0.0000    72.0000 </r>
       <r>    -8.9081     0.0000    72.0000 </r>
       <r>    -8.7976     0.0000    72.0000 </r>
       <r>    -8.6871    -0.0000    72.0000 </r>
       <r>    -8.5766    -0.0000    72.0000 </r>
       <r>    -8.4662    -0.0000    72.0000 </r>
       <r>    -8.3557    -0.0000    72.0000 </r>
       <r>    -8.2452    -0.0000    72.0000 </r>
       <r>    -8.1347    -0.0000    72.0000 </r>
       <r>    -8.0243    -0.0000    72.0000 </r>
       <r>    -7.9138    -0.0000    72.0000 </r>
       <r>    -7.8033    -0.0000    72.0000 </r>
       <r>    -7.6928    -0.0002    72.0000 </r>
       <r>    -7.5824    -0.0051    71.9994 </r>
       <r>    -7.4719    -0.0654    71.9922 </r>
       <r>    -7.3614    -0.4098    71.9469 </r>
       <r>    -7.2509    -1.0181    71.8344 </r>
       <r>    -7.1405     0.8719    71.9307 </r>
       <r>    -7.0300    10.5184    73.0928 </r>
       <r>    -6.9195    25.7876    75.9416 </r>
       <r>    -6.8091    35.9666    79.9150 </r>
       <r>    -6.6986    35.5400    83.8413 </r>
       <r>    -6.5881    27.9039    86.9240 </r>
       <r>    -6.4776    23.6071    89.5320 </r>
       <r>    -6.3672    28.0107    92.6264 </r>
       <r>    -6.2567    39.0974    96.9457 </r>
       <r>    -6.1462    55.9874   103.1309 </r>
       <r>    -6.0357    76.1885   111.5478 </r>
       <r>    -5.9253    92.1383   121.7268 </r>
       <r>    -5.8148    91.8212   131.8707 </r>
       <r>    -5.7043    79.6224   140.6669 </r>
       <r>    -5.5938    71.7784   148.5966 </r>
       <r>    -5.4834    65.6177   155.8457 </r>
       <r>    -5.3729    50.9369   161.4730 </r>
       <r>    -5.2624    39.7152   165.8605 </r>
       <r>    -5.1519    46.4368   170.9906 </r>
       <r>    -5.0415    54.3583   176.9958 </r>
       <r>    -4.9310    51.3981   182.6740 </r>
       <r>    -4.8205    52.5442   188.4788 </r>
       <r>    -4.7100    64.5186   195.6065 </r>
       <r>    -4.5996    75.2485   203.9195 </r>
       <r>    -4.4891    77.2338   212.4519 </r>
       <r>    -4.3786    69.7811   220.1610 </r>
       <r>    -4.2681    59.8050   226.7679 </r>
       <r>    -4.1577    60.9820   233.5049 </r>
       <r>    -4.0472    71.6009   241.4150 </r>
       <r>    -3.9367    75.6151   249.7685 </r>
       <r>    -3.8262    77.3378   258.3124 </r>
       <r>    -3.7158    80.0677   267.1578 </r>
       <r>    -3.6053    74.4643   275.3843 </r>
       <r>    -3.4948    62.0261   282.2366 </r>
       <r>    -3.3843    40.5084   286.7117 </r>
       <r>    -3.2739    14.2423   288.2851 </r>
       <r>    -3.1634    -0.1733   288.2660 </r>
       <r>    -3.0529    -1.7959   288.0676 </r>
       <r>    -2.9424    -0.5387   288.0081 </r>
       <r>    -2.8320    -0.0686   288.0005 </r>
       <r>    -2.7215    -0.0043   288.0000 </r>
       <r>    -2.6110    -0.0001   288.0000 </r>
       <r>    -2.5005    -0.0000   288.0000 </r>
       <r>    -2.3901    -0.0000   288.0000 </r>
       <r>    -2.2796    -0.0000   288.0000 </r>
       <r>    -2.1691    -0.0000   288.0000 </r>
       <r>    -2.0586    -0.0000   288.0000 </r>
       <r>    -1.9482    -0.0000   288.0000 </r>
       <r>    -1.8377    -0.0000   288.0000 </r>
       <r>    -1.7272    -0.0000   288.0000 </r>
       <r>    -1.6167    -0.0000   288.0000 </r>
       <r>    -1.5063    -0.0003   288.0000 </r>
       <r>    -1.3958    -0.0088   287.9990 </r>
       <r>    -1.2853    -0.1182   287.9859 </r>
       <r>    -1.1748    -0.7996   287.8976 </r>
       <r>    -1.0644    -2.3590   287.6370 </r>
       <r>    -0.9539     0.0343   287.6408 </r>
       <r>    -0.8434    19.1473   289.7561 </r>
       <r>    -0.7329    58.1343   296.1784 </r>
       <r>    -0.6225    95.8506   306.7675 </r>
       <r>    -0.5120   117.2608   319.7218 </r>
       <r>    -0.4015   136.8074   334.8356 </r>
       <r>    -0.2910   149.4702   351.3483 </r>
       <r>    -0.1806   135.7653   366.3469 </r>
       <r>    -0.0701   107.9623   378.2740 </r>
       <r>     0.0404    85.7555   387.7478 </r>
       <r>     0.1509    75.3663   396.0739 </r>
       <r>     0.2613    64.3751   403.1857 </r>
       <r>     0.3718    47.3795   408.4199 </r>
       <r>     0.4823    37.4487   412.5570 </r>
       <r>     0.5928    34.7170   416.3924 </r>
       <r>     0.7032    37.9087   420.5803 </r>
       <r>     0.8137    44.7541   425.5245 </r>
       <r>     0.9242    40.9159   430.0447 </r>
       <r>     1.0347    41.2021   434.5965 </r>
       <r>     1.1451    50.1765   440.1397 </r>
       <r>     1.2556    44.7964   445.0886 </r>
       <r>     1.3661    23.6926   447.7060 </r>
       <r>     1.4766     5.1198   448.2717 </r>
       <r>     1.5870    -1.2609   448.1324 </r>
       <r>     1.6975    -0.9655   448.0257 </r>
       <r>     1.8080    -0.2100   448.0025 </r>
       <r>     1.9184    -0.0214   448.0001 </r>
       <r>     2.0289    -0.0011   448.0000 </r>
       <r>     2.1394    -0.0000   448.0000 </r>
       <r>     2.2499    -0.0000   448.0000 </r>
       <r>     2.3603    -0.0000   448.0000 </r>
       <r>     2.4708    -0.0000   448.0000 </r>
       <r>     2.5813    -0.0000   448.0000 </r>
       <r>     2.6918    -0.0004   448.0000 </r>
       <r>     2.8022    -0.0074   447.9991 </r>
       <r>     2.9127    -0.0762   447.9907 </r>
       <r>     3.0232    -0.3286   447.9544 </r>
       <r>     3.1337    -0.1277   447.9403 </r>
       <r>     3.2441     2.8789   448.2584 </r>
       <r>     3.3546     7.4943   449.0863 </r>
       <r>     3.4651     6.8504   449.8431 </r>
       <r>     3.5756     2.0468   450.0692 </r>
       <r>     3.6860    -0.3118   450.0348 </r>
       <r>     3.7965    -0.3900   449.9917 </r>
       <r>     3.9070    -0.4407   449.9430 </r>
       <r>     4.0175     0.2404   449.9696 </r>
       <r>     4.1279     4.0344   450.4153 </r>
       <r>     4.2384     7.8240   451.2796 </r>
       <r>     4.3489     5.3864   451.8747 </r>
       <r>     4.4594     2.0557   452.1018 </r>
       <r>     4.5698     5.0130   452.6556 </r>
       <r>     4.6803     7.8734   453.5254 </r>
       <r>     4.7908     4.3526   454.0062 </r>
       <r>     4.9013     0.0788   454.0149 </r>
       <r>     5.0117    -0.5150   453.9580 </r>
       <r>     5.1222     2.7982   454.2672 </r>
       <r>     5.2327     7.5104   455.0969 </r>
       <r>     5.3432     6.8044   455.8486 </r>
       <r>     5.4536     2.0004   456.0696 </r>
       <r>     5.5641    -0.3055   456.0358 </r>
       <r>     5.6746    -0.2688   456.0062 </r>
       <r>     5.7851    -0.0512   456.0005 </r>
       <r>     5.8955    -0.0043   456.0000 </r>
       <r>     6.0060    -0.0002   456.0000 </r>
       <r>     6.1165    -0.0000   456.0000 </r>
       <r>     6.2270    -0.0000   456.0000 </r>
       <r>     6.3374    -0.0000   456.0000 </r>
       <r>     6.4479    -0.0000   456.0000 </r>
       <r>     6.5584     0.0000   456.0000 </r>
       <r>     6.6689     0.0000   456.0000 </r>
       <r>     6.7793     0.0000   456.0000 </r>
       <r>     6.8898     0.0000   456.0000 </r>
       <r>     7.0003     0.0000   456.0000 </r>
       <r>     7.1108     0.0000   456.0000 </r>
       <r>     7.2212     0.0000   456.0000 </r>
      </set>
     </set>
    </array>
   </total>
  </dos>
 </calculation>
 <structure name="finalpos" >
  <crystal>
   <varray name="basis" >
    <v>       9.40119100       0.00000000      -0.08412900 </v>
    <v>       0.00000000       5.35946700       0.00000000 </v>
    <v>       0.00000000       0.00000000      14.95565100 </v>
   </varray>
   <i name="volume">    753.54605297 </i>
   <varray name="rec_basis" >
    <v>       0.10636950       0.00000000       0.00000000 </v>
    <v>       0.00000000       0.18658572       0.00000000 </v>
    <v>       0.00059835       0.00000000       0.06686436 </v>
   </varray>
  </crystal>
  <varray name="positions" >
   <v>       0.16411200       0.48397600       0.17995900 </v>
   <v>       0.16411200       0.51602400       0.67995900 </v>
   <v>       0.66411200       0.98397600       0.17995900 </v>
   <v>       0.66411200       0.01266800       0.67995900 </v>
   <v>       0.17533200       0.47285200       0.97303200 </v>
   <v>       0.17533200       0.52714800       0.47303200 </v>
   <v>       0.67533200       0.97285200       0.96651900 </v>
   <v>       0.67533200       0.02714800       0.47303200 </v>
   <v>       0.33162900       0.02941400       0.82240100 </v>
   <v>       0.33162900       0.97058600       0.32240100 </v>
   <v>       0.83162900       0.52941400       0.82240100 </v>
   <v>       0.83162900       0.47058600       0.31509100 </v>
   <v>       0.33361900       0.00432000       0.51711500 </v>
   <v>       0.33361900       0.99568000       0.01711500 </v>
   <v>       0.83361900       0.50432000       0.51711500 </v>
   <v>       0.83361900       0.49568000       0.01711500 </v>
   <v>       0.30926400       0.26740800       0.92544800 </v>
   <v>       0.30926400       0.73259200       0.42544800 </v>
   <v>       0.80926400       0.76740800       0.92857300 </v>
   <v>       0.80926400       0.23259200       0.42544800 </v>
   <v>       0.00386100       0.36884200       0.24394900 </v>
   <v>       0.00386100       0.62580300       0.73448300 </v>
   <v>       0.50386100       0.86884200       0.24394900 </v>
   <v>       0.50386100       0.13115800       0.74394900 </v>
   <v>       0.02591400       0.40423800       0.56952300 </v>
   <v>       0.02591400       0.60462300       0.07915900 </v>
   <v>       0.52591400       0.89537700       0.57915900 </v>
   <v>       0.52591400       0.10462300       0.07915900 </v>
   <v>       0.17611800       0.21417000       0.08350500 </v>
   <v>       0.17611800       0.78583000       0.58350500 </v>
   <v>       0.67611800       0.71417000       0.08350500 </v>
   <v>       0.67611800       0.28583000       0.58350500 </v>
   <v>       0.18147400       0.20344500       0.73945400 </v>
   <v>       0.18147400       0.79655500       0.23945400 </v>
   <v>       0.68147400       0.70344500       0.73945400 </v>
   <v>       0.68147400       0.29655500       0.23945400 </v>
   <v>       0.18900300       0.20186000       0.42366300 </v>
   <v>       0.18900300       0.79814000       0.92366300 </v>
   <v>       0.68900300       0.70186000       0.42142700 </v>
   <v>       0.68900300       0.29814000       0.92366300 </v>
   <v>       0.29347700       0.34686800       0.57827500 </v>
   <v>       0.29347700       0.64445200       0.07827500 </v>
   <v>       0.79347700       0.84928900       0.57827500 </v>
   <v>       0.79347700       0.15313200       0.07827500 </v>
   <v>       0.30310600       0.31251000       0.24801900 </v>
   <v>       0.30310600       0.69438900       0.74801900 </v>
   <v>       0.80310600       0.80561100       0.24801900 </v>
   <v>       0.80310600       0.19438900       0.74801900 </v>
   <v>       0.49071400       0.13464800       0.42295500 </v>
   <v>       0.49071400       0.86535200       0.92185000 </v>
   <v>       0.99071400       0.63464800       0.42295500 </v>
   <v>       0.99785200       0.36535200       0.92295500 </v>
  </varray>
 </structure>
</modeling>
