<?xml version="1.0" encoding="ISO-8859-1"?>
<modeling>
 <generator>
  <i name="program" type="string">vasp </i>
  <i name="version" type="string">5.3.5  </i>
  <i name="subversion" type="string">31Mar14 (build Aug 29 2014 19:41:47) complex                          parallel </i>
  <i name="platform" type="string">LinuxIFC </i>
  <i name="date" type="string">2019 04 11 </i>
  <i name="time" type="string">16:28:36 </i>
 </generator>
 <incar>
  <i type="string" name="SYSTEM"> Fe6OF11_var_33</i>
  <i type="int" name="ISTART">     0</i>
  <i type="string" name="PREC">normal</i>
  <i type="string" name="ALGO"> VeryFast</i>
  <i type="int" name="ISPIN">     1</i>
  <i type="int" name="ICHARG">     2</i>
  <i type="int" name="NELM">   300</i>
  <i type="int" name="ISYM">     0</i>
  <i type="logical" name="LWAVE"> F  </i>
  <i type="int" name="NELM">   300</i>
 </incar>
 <kpoints>
  <generation param="Gamma">
   <v type="int" name="divisions">       1        1        1 </v>
   <v name="usershift">      0.00000000       0.00000000       0.00000000 </v>
   <v name="genvec1">      1.00000000      -0.00000000       0.00000000 </v>
   <v name="genvec2">     -0.00000000       1.00000000       0.00000000 </v>
   <v name="genvec3">     -0.00000000       0.00000000       1.00000000 </v>
   <v name="shift">      0.00000000       0.00000000       0.00000000 </v>
  </generation>
  <varray name="kpointlist" >
   <v>       0.00000000       0.00000000       0.00000000 </v>
  </varray>
  <varray name="weights" >
   <v>       1.00000000 </v>
  </varray>
 </kpoints>
 <parameters>
  <separator name="general" >
   <i type="string" name="SYSTEM">Fe6OF11_var_33</i>
   <i type="logical" name="LCOMPAT"> F  </i>
  </separator>
  <separator name="electronic" >
   <i type="string" name="PREC">normal</i>
   <i name="ENMAX">    400.00000000</i>
   <i name="ENAUG">    613.61400000</i>
   <i name="EDIFF">      0.00010000</i>
   <i type="int" name="IALGO">    48</i>
   <i type="int" name="IWAVPR">    10</i>
   <i type="int" name="NBANDS">   160</i>
   <i name="NELECT">    262.00000000</i>
   <i type="int" name="TURBO">     0</i>
   <i type="int" name="IRESTART">     0</i>
   <i type="int" name="NREBOOT">     0</i>
   <i type="int" name="NMIN">     0</i>
   <i name="EREF">      0.00000000</i>
   <separator name="electronic smearing" >
    <i type="int" name="ISMEAR">     1</i>
    <i name="SIGMA">      0.20000000</i>
    <i name="KSPACING">      0.50000000</i>
    <i type="logical" name="KGAMMA"> T  </i>
   </separator>
   <separator name="electronic projectors" >
    <i type="logical" name="LREAL"> F  </i>
    <v name="ROPT">      0.00000000      0.00000000      0.00000000</v>
    <i type="int" name="LMAXPAW">  -100</i>
    <i type="int" name="LMAXMIX">     2</i>
    <i type="logical" name="NLSPLINE"> F  </i>
   </separator>
   <separator name="electronic startup" >
    <i type="int" name="ISTART">     0</i>
    <i type="int" name="ICHARG">     2</i>
    <i type="int" name="INIWAV">     1</i>
   </separator>
   <separator name="electronic spin" >
    <i type="int" name="ISPIN">     1</i>
    <i type="logical" name="LNONCOLLINEAR"> F  </i>
    <v name="MAGMOM">      1.00000000      1.00000000      1.00000000      1.00000000      1.00000000      1.00000000      1.00000000      1.00000000      1.00000000      1.00000000      1.00000000      1.00000000      1.00000000      1.00000000      1.00000000      1.00000000      1.00000000      1.00000000      1.00000000      1.00000000
      1.00000000      1.00000000      1.00000000      1.00000000      1.00000000      1.00000000      1.00000000      1.00000000      1.00000000      1.00000000      1.00000000      1.00000000      1.00000000      1.00000000      1.00000000      1.00000000</v>
    <i name="NUPDOWN">     -1.00000000</i>
    <i type="logical" name="LSORBIT"> F  </i>
    <v name="SAXIS">      0.00000000      0.00000000      1.00000000</v>
    <i type="logical" name="LSPIRAL"> F  </i>
    <v name="QSPIRAL">      0.00000000      0.00000000      0.00000000</v>
    <i type="logical" name="LZEROZ"> F  </i>
   </separator>
   <separator name="electronic exchange-correlation" >
    <i type="logical" name="LASPH"> F  </i>
    <i type="logical" name="LMETAGGA"> F  </i>
   </separator>
   <separator name="electronic convergence" >
    <i type="int" name="NELM">   300</i>
    <i type="int" name="NELMDL">   -12</i>
    <i type="int" name="NELMIN">     2</i>
    <i name="ENINI">    400.00000000</i>
    <separator name="electronic convergence detail" >
     <i type="logical" name="LDIAG"> T  </i>
     <i type="logical" name="LSUBROT"> F  </i>
     <i name="WEIMIN">      0.00000000</i>
     <i name="EBREAK">      0.00000016</i>
     <i name="DEPER">      0.30000000</i>
     <i type="int" name="NRMM">     4</i>
     <i name="TIME">      0.40000000</i>
    </separator>
   </separator>
   <separator name="electronic mixer" >
    <i name="AMIX">      0.40000000</i>
    <i name="BMIX">      1.00000000</i>
    <i name="AMIN">      0.10000000</i>
    <i name="AMIX_MAG">      1.60000000</i>
    <i name="BMIX_MAG">      1.00000000</i>
    <separator name="electronic mixer details" >
     <i type="int" name="IMIX">     4</i>
     <i type="int" name="MAXMIX">   -45</i>
     <i name="WC">    100.00000000</i>
     <i type="int" name="INIMIX">     1</i>
     <i type="int" name="MIXPRE">     1</i>
     <i type="int" name="MREMOVE">     5</i>
    </separator>
   </separator>
   <separator name="electronic dipolcorrection" >
    <i type="logical" name="LDIPOL"> F  </i>
    <i type="logical" name="LMONO"> F  </i>
    <i type="int" name="IDIPOL">     0</i>
    <i name="EPSILON">      1.00000000</i>
    <v name="DIPOL">   -100.00000000   -100.00000000   -100.00000000</v>
    <i name="EFIELD">      0.00000000</i>
   </separator>
  </separator>
  <separator name="grids" >
   <i type="int" name="NGX">    16</i>
   <i type="int" name="NGY">   108</i>
   <i type="int" name="NGZ">    36</i>
   <i type="int" name="NGXF">    32</i>
   <i type="int" name="NGYF">   216</i>
   <i type="int" name="NGZF">    72</i>
   <i type="logical" name="ADDGRID"> F  </i>
  </separator>
  <separator name="ionic" >
   <i type="int" name="NSW">     0</i>
   <i type="int" name="IBRION">    -1</i>
   <i type="int" name="ISIF">     2</i>
   <i name="PSTRESS">      0.00000000</i>
   <i name="EDIFFG">      0.00100000</i>
   <i type="int" name="NFREE">     0</i>
   <i name="POTIM">      0.50000000</i>
   <i name="SMASS">     -3.00000000</i>
   <i name="SCALEE">      1.00000000</i>
  </separator>
  <separator name="ionic md" >
   <i name="TEBEG">      0.00010000</i>
   <i name="TEEND">      0.00010000</i>
   <i type="int" name="NBLOCK">     1</i>
   <i type="int" name="KBLOCK">     1</i>
   <i type="int" name="NPACO">   256</i>
   <i name="APACO">     16.00000000</i>
  </separator>
  <separator name="symmetry" >
   <i type="int" name="ISYM">     0</i>
   <i name="SYMPREC">      0.00001000</i>
  </separator>
  <separator name="dos" >
   <i type="logical" name="LORBIT"> F  </i>
   <v name="RWIGS">     -1.00000000     -1.00000000     -1.00000000</v>
   <i type="int" name="NEDOS">   301</i>
   <i name="EMIN">     10.00000000</i>
   <i name="EMAX">    -10.00000000</i>
   <i name="EFERMI">      0.00000000</i>
  </separator>
  <separator name="writing" >
   <i type="int" name="NWRITE">     2</i>
   <i type="logical" name="LWAVE"> F  </i>
   <i type="logical" name="LCHARG"> T  </i>
   <i type="logical" name="LPARD"> F  </i>
   <i type="logical" name="LVTOT"> F  </i>
   <i type="logical" name="LVHAR"> F  </i>
   <i type="logical" name="LELF"> F  </i>
   <i type="logical" name="LOPTICS"> F  </i>
   <v name="STM">      0.00000000      0.00000000      0.00000000      0.00000000      0.00000000      0.00000000      0.00000000</v>
  </separator>
  <separator name="performance" >
   <i type="int" name="NPAR">     4</i>
   <i type="int" name="NSIM">     4</i>
   <i type="int" name="NBLK">    -1</i>
   <i type="logical" name="LPLANE"> T  </i>
   <i type="logical" name="LSCALAPACK"> T  </i>
   <i type="logical" name="LSCAAWARE"> F  </i>
   <i type="logical" name="LSCALU"> F  </i>
   <i type="logical" name="LASYNC"> F  </i>
   <i type="logical" name="LORBITALREAL"> F  </i>
  </separator>
  <separator name="miscellaneous" >
   <i type="int" name="IDIOT">     3</i>
   <i type="logical" name="LMUSIC"> F  </i>
   <v name="POMASS">     55.84700000     16.00000000     18.99800000</v>
   <v name="DARWINR">      0.00000000      0.00000000      0.00000000</v>
   <v name="DARWINV">      1.00000000      1.00000000      1.00000000</v>
   <i type="logical" name="LCORR"> T  </i>
  </separator>
  <i type="logical" name="GGA_COMPAT"> T  </i>
  <i type="logical" name="LBERRY"> F  </i>
  <i type="int" name="ICORELEVEL">     0</i>
  <i type="logical" name="LDAU"> F  </i>
  <i type="int" name="I_CONSTRAINED_M">     0</i>
  <separator name="electronic exchange-correlation" >
   <i type="string" name="GGA">--</i>
   <i type="int" name="VOSKOWN">     0</i>
   <i type="logical" name="LHFCALC"> F  </i>
   <i type="string" name="PRECFOCK"></i>
   <i type="logical" name="LSYMGRAD"> F  </i>
   <i type="logical" name="LHFONE"> F  </i>
   <i type="logical" name="LRHFCALC"> F  </i>
   <i type="logical" name="LTHOMAS"> F  </i>
   <i type="logical" name="LMODELHF"> F  </i>
   <i name="ENCUT4O">     -1.00000000</i>
   <i type="int" name="EXXOEP">     0</i>
   <i type="int" name="FOURORBIT">     0</i>
   <i name="AEXX">      0.00000000</i>
   <i name="HFALPHA">      0.00000000</i>
   <i name="MCALPHA">      0.00000000</i>
   <i name="ALDAX">      1.00000000</i>
   <i name="AGGAX">      1.00000000</i>
   <i name="ALDAC">      1.00000000</i>
   <i name="AGGAC">      1.00000000</i>
   <i type="int" name="NKREDX">     1</i>
   <i type="int" name="NKREDY">     1</i>
   <i type="int" name="NKREDZ">     1</i>
   <i type="logical" name="SHIFTRED"> F  </i>
   <i type="logical" name="ODDONLY"> F  </i>
   <i type="logical" name="EVENONLY"> F  </i>
   <i type="int" name="LMAXFOCK">     0</i>
   <i type="int" name="NMAXFOCKAE">     0</i>
   <i type="logical" name="LFOCKAEDFT"> F  </i>
   <i name="HFSCREEN">      0.00000000</i>
   <i name="HFSCREENC">      0.00000000</i>
   <i type="int" name="NBANDSGWLOW">     0</i>
  </separator>
  <separator name="vdW DFT" >
   <i type="logical" name="LUSE_VDW"> F  </i>
   <i name="Zab_VDW">     -0.84910000</i>
   <i name="PARAM1">      0.12340000</i>
   <i name="PARAM2">      1.00000000</i>
   <i name="PARAM3">      0.00000000</i>
  </separator>
  <separator name="model GW" >
   <i type="int" name="MODEL_GW">     0</i>
   <i name="MODEL_EPS0">      7.56653150</i>
   <i name="MODEL_ALPHA">      1.00000000</i>
  </separator>
  <separator name="linear response parameters" >
   <i type="logical" name="LEPSILON"> F  </i>
   <i type="logical" name="LRPA"> F  </i>
   <i type="logical" name="LNABLA"> F  </i>
   <i type="logical" name="LVEL"> F  </i>
   <i type="int" name="KINTER">     0</i>
   <i name="CSHIFT">      0.10000000</i>
   <i name="OMEGAMAX">     -1.00000000</i>
   <i name="DEG_THRESHOLD">      0.00200000</i>
  </separator>
  <separator name="orbital magnetization" >
   <i type="logical" name="NUCIND"> F  </i>
   <v name="MAGPOS">      0.00000000      0.00000000      0.00000000</v>
   <i type="logical" name="LNICSALL"> T  </i>
   <i type="logical" name="ORBITALMAG"> F  </i>
   <i type="logical" name="LMAGBLOCH"> F  </i>
   <i type="logical" name="LCHIMAG"> F  </i>
   <i type="logical" name="LGAUGE"> T  </i>
   <i type="int" name="MAGATOM">     0</i>
   <v name="MAGDIPOL">      0.00000000      0.00000000      0.00000000</v>
   <v name="AVECCONST">      0.00000000      0.00000000      0.00000000</v>
  </separator>
  <separator name="response functions" >
   <i type="logical" name="LADDER"> F  </i>
   <i type="logical" name="LFXC"> F  </i>
   <i type="logical" name="LHARTREE"> T  </i>
   <i type="int" name="IBSE">     0</i>
   <i type="logical" name="LTCTE"> F  </i>
   <i type="logical" name="LTETE"> F  </i>
   <i type="logical" name="LTRIPLET"> F  </i>
   <i type="logical" name="LFXCEPS"> F  </i>
   <i type="logical" name="LFXHEG"> F  </i>
   <i type="logical" name="L2ORDER"> F  </i>
   <i type="logical" name="LUSEW"> F  </i>
   <i name="ENCUTGW">     -2.00000000</i>
   <i name="ENCUTGWSOFT">     -2.00000000</i>
   <i name="ENCUTLF">     -1.00000000</i>
   <i type="int" name="LMAXMP2">    -1</i>
   <i name="SCISSOR">      0.00000000</i>
   <i type="int" name="NOMEGA">     0</i>
   <i type="int" name="NOMEGAR">     0</i>
   <i type="int" name="NBANDSGW">    -1</i>
   <i type="int" name="NBANDSO">    -1</i>
   <i type="int" name="NBANDSV">    -1</i>
   <i type="int" name="NELM">   300</i>
   <i type="int" name="DIM">     3</i>
   <i type="int" name="ANTIRES">     0</i>
   <i name="OMEGAMAX">    -30.00000000</i>
   <i name="OMEGAMIN">    -30.00000000</i>
   <i name="OMEGATL">   -200.00000000</i>
   <i type="int" name="OMEGAGRID">     0</i>
   <i name="CSHIFT">     -0.10000000</i>
   <i type="logical" name="SELFENERGY"> F  </i>
   <i type="logical" name="LSPECTRAL"> F  </i>
   <i type="logical" name="ODDONLYGW"> F  </i>
   <i type="logical" name="EVENONLYGW"> F  </i>
   <i type="int" name="NKREDLFX">     1</i>
   <i type="int" name="NKREDLFY">     1</i>
   <i type="int" name="NKREDLFZ">     1</i>
   <i type="int" name="MAXMEM">  1800</i>
   <i type="int" name="TELESCOPE">     0</i>
   <i type="int" name="TAUPAR">     1</i>
  </separator>
  <separator name="External order field" >
   <i name="OFIELD_KAPPA">      0.00000000</i>
   <v name="OFIELD_K">      0.00000000      0.00000000      0.00000000</v>
   <i name="OFIELD_Q6_NEAR">      0.00000000</i>
   <i name="OFIELD_Q6_FAR">      0.00000000</i>
   <i name="OFIELD_A">      0.00000000</i>
  </separator>
 </parameters>
 <atominfo>
  <atoms>      36 </atoms>
  <types>       3 </types>
  <array name="atoms" >
   <dimension dim="1">ion</dimension>
   <field type="string">element</field>
   <field type="int">atomtype</field>
   <set>
    <rc><c>Fe</c><c>   1</c></rc>
    <rc><c>Fe</c><c>   1</c></rc>
    <rc><c>Fe</c><c>   1</c></rc>
    <rc><c>Fe</c><c>   1</c></rc>
    <rc><c>Fe</c><c>   1</c></rc>
    <rc><c>Fe</c><c>   1</c></rc>
    <rc><c>Fe</c><c>   1</c></rc>
    <rc><c>Fe</c><c>   1</c></rc>
    <rc><c>Fe</c><c>   1</c></rc>
    <rc><c>Fe</c><c>   1</c></rc>
    <rc><c>Fe</c><c>   1</c></rc>
    <rc><c>Fe</c><c>   1</c></rc>
    <rc><c>O </c><c>   2</c></rc>
    <rc><c>O </c><c>   2</c></rc>
    <rc><c>F </c><c>   3</c></rc>
    <rc><c>F </c><c>   3</c></rc>
    <rc><c>F </c><c>   3</c></rc>
    <rc><c>F </c><c>   3</c></rc>
    <rc><c>F </c><c>   3</c></rc>
    <rc><c>F </c><c>   3</c></rc>
    <rc><c>F </c><c>   3</c></rc>
    <rc><c>F </c><c>   3</c></rc>
    <rc><c>F </c><c>   3</c></rc>
    <rc><c>F </c><c>   3</c></rc>
    <rc><c>F </c><c>   3</c></rc>
    <rc><c>F </c><c>   3</c></rc>
    <rc><c>F </c><c>   3</c></rc>
    <rc><c>F </c><c>   3</c></rc>
    <rc><c>F </c><c>   3</c></rc>
    <rc><c>F </c><c>   3</c></rc>
    <rc><c>F </c><c>   3</c></rc>
    <rc><c>F </c><c>   3</c></rc>
    <rc><c>F </c><c>   3</c></rc>
    <rc><c>F </c><c>   3</c></rc>
    <rc><c>F </c><c>   3</c></rc>
    <rc><c>F </c><c>   3</c></rc>
   </set>
  </array>
  <array name="atomtypes" >
   <dimension dim="1">type</dimension>
   <field type="int">atomspertype</field>
   <field type="string">element</field>
   <field>mass</field>
   <field>valence</field>
   <field type="string">pseudopotential</field>
   <set>
    <rc><c>  12</c><c>Fe</c><c>     55.84700000</c><c>      8.00000000</c><c>  PAW_PBE Fe 06Sep2000                  </c></rc>
    <rc><c>   2</c><c>O </c><c>     16.00000000</c><c>      6.00000000</c><c>  PAW_PBE O 08Apr2002                   </c></rc>
    <rc><c>  22</c><c>F </c><c>     18.99800000</c><c>      7.00000000</c><c>  PAW_PBE F 08Apr2002                   </c></rc>
   </set>
  </array>
 </atominfo>
 <structure name="initialpos" >
  <crystal>
   <varray name="basis" >
    <v>       3.25262800      -0.01869800       0.00000000 </v>
    <v>       0.03063600      20.54938400       0.08164400 </v>
    <v>       0.00000000       0.00000000       6.79221100 </v>
   </varray>
   <i name="volume">    453.99189003 </i>
   <varray name="rec_basis" >
    <v>       0.30744107      -0.00045835       0.00000000 </v>
    <v>       0.00027974       0.04866284       0.00000000 </v>
    <v>      -0.00000336      -0.00058494       0.14722746 </v>
   </varray>
  </crystal>
  <varray name="positions" >
   <v>       0.00000000       0.16671900       0.50139100 </v>
   <v>       0.99354400       0.83328100       0.50139100 </v>
   <v>       0.00000000       0.66671900       0.00139100 </v>
   <v>       0.00000000       0.33328100       0.00139100 </v>
   <v>       0.50559900       0.16602100       0.00000400 </v>
   <v>       0.50000000       0.83397900       0.00000400 </v>
   <v>       0.50000000       0.66602100       0.50000400 </v>
   <v>       0.50000000       0.33397900       0.49841900 </v>
   <v>       0.00000000       0.00000000       0.01216200 </v>
   <v>       0.00000000       0.50000000       0.51216200 </v>
   <v>       0.50000000       0.00000000       0.47240000 </v>
   <v>       0.50000000       0.50000000       0.97240000 </v>
   <v>       0.00000000       0.00000000       0.31436200 </v>
   <v>       0.00000000       0.50000000       0.81436200 </v>
   <v>       0.00000000       0.16816900       0.20329900 </v>
   <v>       0.00000000       0.83183100       0.20329900 </v>
   <v>       0.99544400       0.66816900       0.69615200 </v>
   <v>       0.00000000       0.33183100       0.70329900 </v>
   <v>       0.00000000       0.16838200       0.79934600 </v>
   <v>       0.00000000       0.83161800       0.79934600 </v>
   <v>       0.00000000       0.66838200       0.29934600 </v>
   <v>       0.00000000       0.33161800       0.29934600 </v>
   <v>       0.50000000       0.06837200       0.99633700 </v>
   <v>       0.50000000       0.93162800       0.99633700 </v>
   <v>       0.50000000       0.56837200       0.49633700 </v>
   <v>       0.50000000       0.43162800       0.49633700 </v>
   <v>       0.50000000       0.08894200       0.50567900 </v>
   <v>       0.50000000       0.90181600       0.49938200 </v>
   <v>       0.50000000       0.59818400       0.00567900 </v>
   <v>       0.50000000       0.40181600       0.00567900 </v>
   <v>       0.50000000       0.23406000       0.50152500 </v>
   <v>       0.50826400       0.76594000       0.50152500 </v>
   <v>       0.50000000       0.73406000       0.00152500 </v>
   <v>       0.50000000       0.26594000       0.00152500 </v>
   <v>       0.00000000       0.00000000       0.69474100 </v>
   <v>       0.00000000       0.50000000       0.19474100 </v>
  </varray>
 </structure>
 <calculation>
  <scstep>
   <time name="diag">    0.19    0.26</time>
   <time name="diis">    0.40    0.61</time>
   <time name="orth">    0.14    0.18</time>
   <time name="total">    0.99    1.45</time>
   <energy>
    <i name="alphaZ">    943.56844085 </i>
    <i name="ewald"> -15983.78261015 </i>
    <i name="hartreedc">  -6699.53198734 </i>
    <i name="XCdc">    902.29597340 </i>
    <i name="pawpsdc">  19213.82102697 </i>
    <i name="pawaedc"> -19422.08171028 </i>
    <i name="eentropy">      0.02582661 </i>
    <i name="bandstr">   1827.24786830 </i>
    <i name="atom">  22504.09828397 </i>
    <i name="e_fr_energy">   3285.66111232 </i>
    <i name="e_wo_entrp">   3285.63528571 </i>
    <i name="e_0_energy">   3285.65250345 </i>
   </energy>
  </scstep>
  <scstep>
   <time name="diag">    0.45    0.48</time>
   <time name="diis">    0.36    0.66</time>
   <time name="orth">    0.09    0.10</time>
   <time name="total">    0.90    1.25</time>
   <energy>
    <i name="e_fr_energy">   1031.44388283 </i>
    <i name="e_wo_entrp">   1031.35451129 </i>
    <i name="e_0_energy">   1031.41409232 </i>
   </energy>
  </scstep>
  <scstep>
   <time name="diag">    0.25    0.30</time>
   <time name="diis">    0.48    0.65</time>
   <time name="orth">    0.23    0.41</time>
   <time name="total">    0.96    1.35</time>
   <energy>
    <i name="e_fr_energy">    345.00188264 </i>
    <i name="e_wo_entrp">    344.92717992 </i>
    <i name="e_0_energy">    344.97698173 </i>
   </energy>
  </scstep>
  <scstep>
   <time name="diag">    0.38    0.51</time>
   <time name="diis">    0.49    0.61</time>
   <time name="orth">    0.07    0.08</time>
   <time name="total">    0.94    1.20</time>
   <energy>
    <i name="e_fr_energy">     69.37734055 </i>
    <i name="e_wo_entrp">     69.36130016 </i>
    <i name="e_0_energy">     69.37199375 </i>
   </energy>
  </scstep>
  <scstep>
   <time name="diag">    0.19    0.21</time>
   <time name="diis">    0.38    0.54</time>
   <time name="orth">    0.21    0.36</time>
   <time name="total">    0.77    1.11</time>
   <energy>
    <i name="e_fr_energy">    -90.18600971 </i>
    <i name="e_wo_entrp">    -90.32749340 </i>
    <i name="e_0_energy">    -90.23317094 </i>
   </energy>
  </scstep>
  <scstep>
   <time name="diag">    0.23    0.44</time>
   <time name="diis">    0.47    0.64</time>
   <time name="orth">    0.05    0.11</time>
   <time name="total">    0.76    1.20</time>
   <energy>
    <i name="e_fr_energy">   -160.62020225 </i>
    <i name="e_wo_entrp">   -160.66775732 </i>
    <i name="e_0_energy">   -160.63605394 </i>
   </energy>
  </scstep>
  <scstep>
   <time name="diag">    0.33    0.47</time>
   <time name="diis">    0.45    0.68</time>
   <time name="orth">    0.20    0.33</time>
   <time name="total">    0.98    1.47</time>
   <energy>
    <i name="e_fr_energy">   -195.29015570 </i>
    <i name="e_wo_entrp">   -195.39388612 </i>
    <i name="e_0_energy">   -195.32473250 </i>
   </energy>
  </scstep>
  <scstep>
   <time name="diag">    0.32    0.52</time>
   <time name="diis">    0.43    0.54</time>
   <time name="orth">    0.34    0.42</time>
   <time name="total">    1.09    1.48</time>
   <energy>
    <i name="e_fr_energy">   -208.63778640 </i>
    <i name="e_wo_entrp">   -208.82880449 </i>
    <i name="e_0_energy">   -208.70145909 </i>
   </energy>
  </scstep>
  <scstep>
   <time name="diag">    0.18    0.31</time>
   <time name="diis">    1.25    1.84</time>
   <time name="orth">    0.10    0.15</time>
   <time name="total">    1.54    2.30</time>
   <energy>
    <i name="e_fr_energy">   -221.88339722 </i>
    <i name="e_wo_entrp">   -222.13899010 </i>
    <i name="e_0_energy">   -221.96859485 </i>
   </energy>
  </scstep>
  <scstep>
   <time name="diag">    0.49    0.63</time>
   <time name="diis">    1.07    1.72</time>
   <time name="orth">    0.14    0.17</time>
   <time name="total">    1.70    2.52</time>
   <energy>
    <i name="e_fr_energy">   -222.18944232 </i>
    <i name="e_wo_entrp">   -222.38548225 </i>
    <i name="e_0_energy">   -222.25478896 </i>
   </energy>
  </scstep>
  <scstep>
   <time name="diag">    0.41    0.63</time>
   <time name="diis">    1.10    1.51</time>
   <time name="orth">    0.03    0.06</time>
   <time name="total">    1.54    2.20</time>
   <energy>
    <i name="e_fr_energy">   -222.43373014 </i>
    <i name="e_wo_entrp">   -222.57852432 </i>
    <i name="e_0_energy">   -222.48199486 </i>
   </energy>
  </scstep>
  <scstep>
   <time name="diag">    0.39    0.60</time>
   <time name="diis">    0.89    1.34</time>
   <time name="orth">    0.12    0.21</time>
   <time name="total">    1.49    2.30</time>
   <energy>
    <i name="e_fr_energy">   -222.54787493 </i>
    <i name="e_wo_entrp">   -222.68420872 </i>
    <i name="e_0_energy">   -222.59331953 </i>
   </energy>
  </scstep>
  <scstep>
   <time name="diag">    0.21    0.38</time>
   <time name="diis">    0.88    1.13</time>
   <time name="orth">    0.09    0.09</time>
   <time name="total">    1.47    2.04</time>
   <energy>
    <i name="e_fr_energy">   -207.88780659 </i>
    <i name="e_wo_entrp">   -207.89786235 </i>
    <i name="e_0_energy">   -207.89115851 </i>
   </energy>
  </scstep>
  <scstep>
   <time name="diag">    0.17    0.20</time>
   <time name="diis">    0.73    1.07</time>
   <time name="orth">    0.06    0.13</time>
   <time name="total">    1.16    1.67</time>
   <energy>
    <i name="e_fr_energy">   -271.90295188 </i>
    <i name="e_wo_entrp">   -272.04810543 </i>
    <i name="e_0_energy">   -271.95133640 </i>
   </energy>
  </scstep>
  <scstep>
   <time name="diag">    0.17    0.20</time>
   <time name="diis">    0.77    1.14</time>
   <time name="orth">    0.03    0.04</time>
   <time name="total">    1.27    1.89</time>
   <energy>
    <i name="e_fr_energy">   -250.61102496 </i>
    <i name="e_wo_entrp">   -250.56061974 </i>
    <i name="e_0_energy">   -250.59422322 </i>
   </energy>
  </scstep>
  <scstep>
   <time name="diag">    0.36    0.48</time>
   <time name="diis">    0.77    1.05</time>
   <time name="orth">    0.05    0.06</time>
   <time name="total">    1.39    1.80</time>
   <energy>
    <i name="e_fr_energy">   -229.86704077 </i>
    <i name="e_wo_entrp">   -229.86814808 </i>
    <i name="e_0_energy">   -229.86740987 </i>
   </energy>
  </scstep>
  <scstep>
   <time name="diag">    0.19    0.32</time>
   <time name="diis">    0.76    1.05</time>
   <time name="orth">    0.12    0.12</time>
   <time name="total">    1.44    1.96</time>
   <energy>
    <i name="e_fr_energy">   -213.91648923 </i>
    <i name="e_wo_entrp">   -213.90761584 </i>
    <i name="e_0_energy">   -213.91353143 </i>
   </energy>
  </scstep>
  <scstep>
   <time name="diag">    0.25    0.46</time>
   <time name="diis">    0.75    1.12</time>
   <time name="orth">    0.14    0.21</time>
   <time name="total">    1.46    2.20</time>
   <energy>
    <i name="e_fr_energy">   -260.99881536 </i>
    <i name="e_wo_entrp">   -260.92391099 </i>
    <i name="e_0_energy">   -260.97384723 </i>
   </energy>
  </scstep>
  <scstep>
   <time name="diag">    0.25    0.30</time>
   <time name="diis">    0.90    1.20</time>
   <time name="orth">    0.23    0.28</time>
   <time name="total">    1.69    2.16</time>
   <energy>
    <i name="e_fr_energy">   -232.12216265 </i>
    <i name="e_wo_entrp">   -232.10038591 </i>
    <i name="e_0_energy">   -232.11490374 </i>
   </energy>
  </scstep>
  <scstep>
   <time name="diag">    0.20    0.31</time>
   <time name="diis">    0.87    1.20</time>
   <time name="orth">    0.11    0.21</time>
   <time name="total">    1.58    2.20</time>
   <energy>
    <i name="e_fr_energy">   -222.71356886 </i>
    <i name="e_wo_entrp">   -222.61739443 </i>
    <i name="e_0_energy">   -222.68151072 </i>
   </energy>
  </scstep>
  <scstep>
   <time name="diag">    0.17    0.28</time>
   <time name="diis">    0.76    1.21</time>
   <time name="orth">    0.13    0.22</time>
   <time name="total">    1.31    2.03</time>
   <energy>
    <i name="e_fr_energy">   -214.13145962 </i>
    <i name="e_wo_entrp">   -213.89601222 </i>
    <i name="e_0_energy">   -214.05297715 </i>
   </energy>
  </scstep>
  <scstep>
   <time name="diag">    0.27    0.39</time>
   <time name="diis">    0.71    1.16</time>
   <time name="orth">    0.06    0.06</time>
   <time name="total">    1.20    1.84</time>
   <energy>
    <i name="e_fr_energy">   -199.03531018 </i>
    <i name="e_wo_entrp">   -199.12289382 </i>
    <i name="e_0_energy">   -199.06450473 </i>
   </energy>
  </scstep>
  <scstep>
   <time name="diag">    0.30    0.48</time>
   <time name="diis">    0.66    1.00</time>
   <time name="orth">    0.08    0.14</time>
   <time name="total">    1.35    2.15</time>
   <energy>
    <i name="e_fr_energy">   -218.20983219 </i>
    <i name="e_wo_entrp">   -218.06375439 </i>
    <i name="e_0_energy">   -218.16113959 </i>
   </energy>
  </scstep>
  <scstep>
   <time name="diag">    0.25    0.39</time>
   <time name="diis">    0.94    1.24</time>
   <time name="orth">    0.11    0.13</time>
   <time name="total">    1.66    2.26</time>
   <energy>
    <i name="e_fr_energy">   -209.22830764 </i>
    <i name="e_wo_entrp">   -209.20862627 </i>
    <i name="e_0_energy">   -209.22174718 </i>
   </energy>
  </scstep>
  <scstep>
   <time name="diag">    0.26    0.35</time>
   <time name="diis">    0.75    1.15</time>
   <time name="orth">    0.15    0.20</time>
   <time name="total">    1.39    2.09</time>
   <energy>
    <i name="e_fr_energy">   -196.96730203 </i>
    <i name="e_wo_entrp">   -197.04146623 </i>
    <i name="e_0_energy">   -196.99202343 </i>
   </energy>
  </scstep>
  <scstep>
   <time name="diag">    0.25    0.31</time>
   <time name="diis">    0.79    1.16</time>
   <time name="orth">    0.12    0.23</time>
   <time name="total">    1.39    2.07</time>
   <energy>
    <i name="e_fr_energy">   -195.91566624 </i>
    <i name="e_wo_entrp">   -196.01814057 </i>
    <i name="e_0_energy">   -195.94982435 </i>
   </energy>
  </scstep>
  <scstep>
   <time name="diag">    0.16    0.19</time>
   <time name="diis">    0.77    1.08</time>
   <time name="orth">    0.03    0.05</time>
   <time name="total">    1.14    1.52</time>
   <energy>
    <i name="e_fr_energy">   -192.34018430 </i>
    <i name="e_wo_entrp">   -192.48913080 </i>
    <i name="e_0_energy">   -192.38983313 </i>
   </energy>
  </scstep>
  <scstep>
   <time name="diag">    0.16    0.22</time>
   <time name="diis">    0.76    1.07</time>
   <time name="orth">    0.08    0.12</time>
   <time name="total">    1.29    1.71</time>
   <energy>
    <i name="e_fr_energy">   -190.37925154 </i>
    <i name="e_wo_entrp">   -190.52130719 </i>
    <i name="e_0_energy">   -190.42660342 </i>
   </energy>
  </scstep>
  <scstep>
   <time name="diag">    0.32    0.44</time>
   <time name="diis">    0.73    1.03</time>
   <time name="orth">    0.02    0.05</time>
   <time name="total">    1.46    2.00</time>
   <energy>
    <i name="e_fr_energy">   -189.45814279 </i>
    <i name="e_wo_entrp">   -189.47281511 </i>
    <i name="e_0_energy">   -189.46303356 </i>
   </energy>
  </scstep>
  <scstep>
   <time name="diag">    0.24    0.30</time>
   <time name="diis">    0.72    1.03</time>
   <time name="orth">    0.05    0.05</time>
   <time name="total">    1.24    1.85</time>
   <energy>
    <i name="e_fr_energy">   -189.47874624 </i>
    <i name="e_wo_entrp">   -189.57399225 </i>
    <i name="e_0_energy">   -189.51049491 </i>
   </energy>
  </scstep>
  <scstep>
   <time name="diag">    0.18    0.26</time>
   <time name="diis">    0.81    1.19</time>
   <time name="orth">    0.10    0.19</time>
   <time name="total">    1.34    2.03</time>
   <energy>
    <i name="e_fr_energy">   -189.36881539 </i>
    <i name="e_wo_entrp">   -189.42624975 </i>
    <i name="e_0_energy">   -189.38796017 </i>
   </energy>
  </scstep>
  <scstep>
   <time name="diag">    0.43    0.65</time>
   <time name="diis">    0.74    1.09</time>
   <time name="orth">    0.15    0.28</time>
   <time name="total">    1.59    2.37</time>
   <energy>
    <i name="e_fr_energy">   -189.13665510 </i>
    <i name="e_wo_entrp">   -189.15445510 </i>
    <i name="e_0_energy">   -189.14258844 </i>
   </energy>
  </scstep>
  <scstep>
   <time name="diag">    0.15    0.23</time>
   <time name="diis">    0.93    1.25</time>
   <time name="orth">    0.53    0.54</time>
   <time name="total">    1.89    2.38</time>
   <energy>
    <i name="e_fr_energy">   -189.24025215 </i>
    <i name="e_wo_entrp">   -189.25101306 </i>
    <i name="e_0_energy">   -189.24383912 </i>
   </energy>
  </scstep>
  <scstep>
   <time name="diag">    0.45    0.58</time>
   <time name="diis">    0.85    1.08</time>
   <time name="orth">    0.19    0.24</time>
   <time name="total">    1.69    2.14</time>
   <energy>
    <i name="e_fr_energy">   -189.15665480 </i>
    <i name="e_wo_entrp">   -189.13323631 </i>
    <i name="e_0_energy">   -189.14884864 </i>
   </energy>
  </scstep>
  <scstep>
   <time name="diag">    0.24    0.38</time>
   <time name="diis">    0.74    1.09</time>
   <time name="orth">    0.04    0.04</time>
   <time name="total">    1.23    1.77</time>
   <energy>
    <i name="e_fr_energy">   -189.12742937 </i>
    <i name="e_wo_entrp">   -189.15487337 </i>
    <i name="e_0_energy">   -189.13657737 </i>
   </energy>
  </scstep>
  <scstep>
   <time name="diag">    0.17    0.24</time>
   <time name="diis">    0.75    1.24</time>
   <time name="orth">    0.11    0.12</time>
   <time name="total">    1.50    2.33</time>
   <energy>
    <i name="e_fr_energy">   -189.31375818 </i>
    <i name="e_wo_entrp">   -189.24307396 </i>
    <i name="e_0_energy">   -189.29019677 </i>
   </energy>
  </scstep>
  <scstep>
   <time name="diag">    0.13    0.18</time>
   <time name="diis">    0.70    1.19</time>
   <time name="orth">    0.04    0.07</time>
   <time name="total">    1.17    1.86</time>
   <energy>
    <i name="e_fr_energy">   -189.14255075 </i>
    <i name="e_wo_entrp">   -189.16415641 </i>
    <i name="e_0_energy">   -189.14975263 </i>
   </energy>
  </scstep>
  <scstep>
   <time name="diag">    0.24    0.36</time>
   <time name="diis">    0.78    1.24</time>
   <time name="orth">    0.11    0.14</time>
   <time name="total">    1.38    2.10</time>
   <energy>
    <i name="e_fr_energy">   -189.12425904 </i>
    <i name="e_wo_entrp">   -189.12537699 </i>
    <i name="e_0_energy">   -189.12463169 </i>
   </energy>
  </scstep>
  <scstep>
   <time name="diag">    0.20    0.29</time>
   <time name="diis">    0.71    1.35</time>
   <time name="orth">    0.05    0.10</time>
   <time name="total">    1.20    2.03</time>
   <energy>
    <i name="e_fr_energy">   -189.11620584 </i>
    <i name="e_wo_entrp">   -189.13310084 </i>
    <i name="e_0_energy">   -189.12183751 </i>
   </energy>
  </scstep>
  <scstep>
   <time name="diag">    0.21    0.41</time>
   <time name="diis">    0.73    1.09</time>
   <time name="orth">    0.04    0.06</time>
   <time name="total">    1.41    2.20</time>
   <energy>
    <i name="e_fr_energy">   -189.09185256 </i>
    <i name="e_wo_entrp">   -189.10952365 </i>
    <i name="e_0_energy">   -189.09774292 </i>
   </energy>
  </scstep>
  <scstep>
   <time name="diag">    0.16    0.18</time>
   <time name="diis">    0.88    1.08</time>
   <time name="orth">    0.14    0.14</time>
   <time name="total">    1.39    1.64</time>
   <energy>
    <i name="e_fr_energy">   -189.08397735 </i>
    <i name="e_wo_entrp">   -189.10667664 </i>
    <i name="e_0_energy">   -189.09154378 </i>
   </energy>
  </scstep>
  <scstep>
   <time name="diag">    0.51    0.76</time>
   <time name="diis">    0.81    1.08</time>
   <time name="orth">    0.08    0.15</time>
   <time name="total">    1.83    2.51</time>
   <energy>
    <i name="e_fr_energy">   -189.07747500 </i>
    <i name="e_wo_entrp">   -189.10145325 </i>
    <i name="e_0_energy">   -189.08546775 </i>
   </energy>
  </scstep>
  <scstep>
   <time name="diag">    0.66    1.05</time>
   <time name="diis">    0.64    0.96</time>
   <time name="orth">    0.13    0.24</time>
   <time name="total">    1.87    2.86</time>
   <energy>
    <i name="e_fr_energy">   -189.07089959 </i>
    <i name="e_wo_entrp">   -189.09637378 </i>
    <i name="e_0_energy">   -189.07939099 </i>
   </energy>
  </scstep>
  <scstep>
   <time name="diag">    0.23    0.32</time>
   <time name="diis">    0.59    0.93</time>
   <time name="orth">    0.07    0.15</time>
   <time name="total">    1.09    1.67</time>
   <energy>
    <i name="e_fr_energy">   -189.06811598 </i>
    <i name="e_wo_entrp">   -189.09232450 </i>
    <i name="e_0_energy">   -189.07618548 </i>
   </energy>
  </scstep>
  <scstep>
   <time name="diag">    0.18    0.24</time>
   <time name="diis">    0.60    1.01</time>
   <time name="orth">    0.14    0.15</time>
   <time name="total">    1.23    2.03</time>
   <energy>
    <i name="e_fr_energy">   -189.06613459 </i>
    <i name="e_wo_entrp">   -189.08899872 </i>
    <i name="e_0_energy">   -189.07375597 </i>
   </energy>
  </scstep>
  <scstep>
   <time name="diag">    0.14    0.22</time>
   <time name="diis">    0.60    0.83</time>
   <time name="orth">    0.04    0.04</time>
   <time name="total">    1.15    1.61</time>
   <energy>
    <i name="e_fr_energy">   -189.06594357 </i>
    <i name="e_wo_entrp">   -189.08814975 </i>
    <i name="e_0_energy">   -189.07334563 </i>
   </energy>
  </scstep>
  <scstep>
   <time name="diag">    0.34    0.47</time>
   <time name="diis">    0.53    0.71</time>
   <time name="orth">    0.02    0.04</time>
   <time name="total">    1.12    1.56</time>
   <energy>
    <i name="e_fr_energy">   -189.06569631 </i>
    <i name="e_wo_entrp">   -189.08868333 </i>
    <i name="e_0_energy">   -189.07335865 </i>
   </energy>
  </scstep>
  <scstep>
   <time name="diag">    0.36    0.53</time>
   <time name="diis">    0.40    0.68</time>
   <time name="orth">    0.05    0.10</time>
   <time name="total">    1.09    1.62</time>
   <energy>
    <i name="alphaZ">    943.56844085 </i>
    <i name="ewald"> -15983.78261015 </i>
    <i name="hartreedc">  -6859.43736529 </i>
    <i name="XCdc">    918.63871336 </i>
    <i name="pawpsdc">  22451.62542938 </i>
    <i name="pawaedc"> -22662.25255696 </i>
    <i name="eentropy">      0.02003604 </i>
    <i name="bandstr">  -1501.54401723 </i>
    <i name="atom">  22504.09828397 </i>
    <i name="e_fr_energy">   -189.06564603 </i>
    <i name="e_wo_entrp">   -189.08568207 </i>
    <i name="e_0_energy">   -189.07232471 </i>
   </energy>
  </scstep>
  <structure>
   <crystal>
    <varray name="basis" >
     <v>       3.25262800      -0.01869800       0.00000000 </v>
     <v>       0.03063600      20.54938400       0.08164400 </v>
     <v>       0.00000000       0.00000000       6.79221100 </v>
    </varray>
    <i name="volume">    453.99189003 </i>
    <varray name="rec_basis" >
     <v>       0.30744107      -0.00045835       0.00000000 </v>
     <v>       0.00027974       0.04866284       0.00000000 </v>
     <v>      -0.00000336      -0.00058494       0.14722746 </v>
    </varray>
   </crystal>
   <varray name="positions" >
    <v>       0.00000000       0.16671900       0.50139100 </v>
    <v>       0.99354400       0.83328100       0.50139100 </v>
    <v>       0.00000000       0.66671900       0.00139100 </v>
    <v>       0.00000000       0.33328100       0.00139100 </v>
    <v>       0.50559900       0.16602100       0.00000400 </v>
    <v>       0.50000000       0.83397900       0.00000400 </v>
    <v>       0.50000000       0.66602100       0.50000400 </v>
    <v>       0.50000000       0.33397900       0.49841900 </v>
    <v>       0.00000000       0.00000000       0.01216200 </v>
    <v>       0.00000000       0.50000000       0.51216200 </v>
    <v>       0.50000000       0.00000000       0.47240000 </v>
    <v>       0.50000000       0.50000000       0.97240000 </v>
    <v>       0.00000000       0.00000000       0.31436200 </v>
    <v>       0.00000000       0.50000000       0.81436200 </v>
    <v>       0.00000000       0.16816900       0.20329900 </v>
    <v>       0.00000000       0.83183100       0.20329900 </v>
    <v>       0.99544400       0.66816900       0.69615200 </v>
    <v>       0.00000000       0.33183100       0.70329900 </v>
    <v>       0.00000000       0.16838200       0.79934600 </v>
    <v>       0.00000000       0.83161800       0.79934600 </v>
    <v>       0.00000000       0.66838200       0.29934600 </v>
    <v>       0.00000000       0.33161800       0.29934600 </v>
    <v>       0.50000000       0.06837200       0.99633700 </v>
    <v>       0.50000000       0.93162800       0.99633700 </v>
    <v>       0.50000000       0.56837200       0.49633700 </v>
    <v>       0.50000000       0.43162800       0.49633700 </v>
    <v>       0.50000000       0.08894200       0.50567900 </v>
    <v>       0.50000000       0.90181600       0.49938200 </v>
    <v>       0.50000000       0.59818400       0.00567900 </v>
    <v>       0.50000000       0.40181600       0.00567900 </v>
    <v>       0.50000000       0.23406000       0.50152500 </v>
    <v>       0.50826400       0.76594000       0.50152500 </v>
    <v>       0.50000000       0.73406000       0.00152500 </v>
    <v>       0.50000000       0.26594000       0.00152500 </v>
    <v>       0.00000000       0.00000000       0.69474100 </v>
    <v>       0.00000000       0.50000000       0.19474100 </v>
   </varray>
  </structure>
  <varray name="forces" >
   <v>      -0.06178482      -0.38112499       0.03532562 </v>
   <v>       0.28461367       0.09004652      -0.05562203 </v>
   <v>      -0.05449344      -0.09859104       0.00824412 </v>
   <v>      -0.01301237       0.09119968       0.04357743 </v>
   <v>      -0.15772885       0.26118496       0.07834771 </v>
   <v>       0.06346148      -0.27716525       0.10057481 </v>
   <v>       0.01755946       0.27392256      -0.15145527 </v>
   <v>       0.00092390      -0.32500470       0.20815791 </v>
   <v>      -0.01422341       0.00548642       0.99086917 </v>
   <v>       0.00625509       0.00371987       0.99260276 </v>
   <v>       0.01971302      -0.69628033       0.00816547 </v>
   <v>      -0.00085430      -0.00020793       0.10598996 </v>
   <v>      -0.00365483      -0.18574294      -1.21568774 </v>
   <v>       0.00041306       0.00296661      -1.11450471 </v>
   <v>       0.06924031      -0.18171148      -0.14084127 </v>
   <v>      -0.07719458       0.17768725      -0.23630786 </v>
   <v>       0.09952520      -0.19081802       0.05746681 </v>
   <v>       0.00123382       0.19387167      -0.24696699 </v>
   <v>       0.07322301      -0.18391841       0.06994403 </v>
   <v>      -0.08003086       0.19501528       0.14852534 </v>
   <v>       0.04468802      -0.18988807       0.19797374 </v>
   <v>      -0.00070667       0.18655920       0.09069501 </v>
   <v>       0.03577133      -0.49371655       0.20869900 </v>
   <v>       0.01418610       0.51784408       0.19355544 </v>
   <v>      -0.03857296      -0.52779880       0.20744777 </v>
   <v>       0.01141847       0.54309044       0.19387260 </v>
   <v>       0.02242935       1.99991584      -0.03284979 </v>
   <v>      -0.10402172      -0.89796361      -0.05583102 </v>
   <v>       0.01302486       0.86938788      -0.19912127 </v>
   <v>      -0.01151775      -0.85801837      -0.17878832 </v>
   <v>      -0.00999059      -0.23029432      -0.04000611 </v>
   <v>      -0.18859457       0.41170949      -0.00334930 </v>
   <v>      -0.01552300      -0.42062162      -0.04830319 </v>
   <v>       0.05634630       0.39239269      -0.02260940 </v>
   <v>      -0.00229707      -0.07805497      -0.06577602 </v>
   <v>       0.00017533       0.00092098      -0.13201441 </v>
  </varray>
  <varray name="stress" >
   <v>    -245.21741968       0.02576872      -0.19404926 </v>
   <v>       0.02576929    -252.59134467      -0.19063337 </v>
   <v>      -0.19404862      -0.19063405    -282.95085552 </v>
  </varray>
  <energy>
   <i name="e_fr_energy">   -189.06564603 </i>
   <i name="e_wo_entrp">   -189.07232471 </i>
   <i name="e_0_energy">      0.02003604 </i>
  </energy>
  <time name="totalsc">   67.07   96.37</time>
  <eigenvalues>
   <array>
    <dimension dim="1">band</dimension>
    <dimension dim="2">kpoint</dimension>
    <dimension dim="3">spin</dimension>
    <field>eigene</field>
    <field>occ</field>
    <set>
     <set comment="spin 1">
      <set comment="kpoint 1">
       <r>  -22.7381    1.0000 </r>
       <r>  -22.7258    1.0000 </r>
       <r>  -22.5888    1.0000 </r>
       <r>  -22.5666    1.0000 </r>
       <r>  -22.3878    1.0000 </r>
       <r>  -22.3745    1.0000 </r>
       <r>  -22.3400    1.0000 </r>
       <r>  -22.3044    1.0000 </r>
       <r>  -22.2822    1.0000 </r>
       <r>  -22.2746    1.0000 </r>
       <r>  -22.2722    1.0000 </r>
       <r>  -22.2586    1.0000 </r>
       <r>  -22.2327    1.0000 </r>
       <r>  -22.2167    1.0000 </r>
       <r>  -22.1993    1.0000 </r>
       <r>  -22.1720    1.0000 </r>
       <r>  -22.1492    1.0000 </r>
       <r>  -22.1433    1.0000 </r>
       <r>  -22.1309    1.0000 </r>
       <r>  -22.1020    1.0000 </r>
       <r>  -20.9470    1.0000 </r>
       <r>  -20.8846    1.0000 </r>
       <r>  -16.5377    1.0000 </r>
       <r>  -16.5210    1.0000 </r>
       <r>   -6.1878    1.0000 </r>
       <r>   -6.0862    1.0000 </r>
       <r>   -5.9262    1.0000 </r>
       <r>   -5.8465    1.0000 </r>
       <r>   -5.6710    1.0000 </r>
       <r>   -5.4663    1.0000 </r>
       <r>   -5.4064    1.0000 </r>
       <r>   -5.3677    1.0000 </r>
       <r>   -5.2897    1.0000 </r>
       <r>   -5.0726    1.0000 </r>
       <r>   -4.6434    1.0000 </r>
       <r>   -4.6155    1.0000 </r>
       <r>   -4.5744    1.0000 </r>
       <r>   -4.5038    1.0000 </r>
       <r>   -4.4076    1.0000 </r>
       <r>   -4.3931    1.0000 </r>
       <r>   -4.3545    1.0000 </r>
       <r>   -4.3494    1.0000 </r>
       <r>   -4.3241    1.0000 </r>
       <r>   -4.3228    1.0000 </r>
       <r>   -4.3020    1.0000 </r>
       <r>   -4.2943    1.0000 </r>
       <r>   -4.2746    1.0000 </r>
       <r>   -4.2593    1.0000 </r>
       <r>   -4.2547    1.0000 </r>
       <r>   -4.1992    1.0000 </r>
       <r>   -4.1959    1.0000 </r>
       <r>   -4.1713    1.0000 </r>
       <r>   -4.1521    1.0000 </r>
       <r>   -4.1385    1.0000 </r>
       <r>   -4.1321    1.0000 </r>
       <r>   -4.1064    1.0000 </r>
       <r>   -4.0915    1.0000 </r>
       <r>   -4.0653    1.0000 </r>
       <r>   -4.0577    1.0000 </r>
       <r>   -3.9987    1.0000 </r>
       <r>   -3.9285    1.0000 </r>
       <r>   -3.8679    1.0000 </r>
       <r>   -3.8190    1.0000 </r>
       <r>   -3.7033    1.0000 </r>
       <r>   -3.6151    1.0000 </r>
       <r>   -3.5743    1.0000 </r>
       <r>   -3.5729    1.0000 </r>
       <r>   -3.5207    1.0000 </r>
       <r>   -3.5094    1.0000 </r>
       <r>   -3.4891    1.0000 </r>
       <r>   -3.4390    1.0000 </r>
       <r>   -3.3890    1.0000 </r>
       <r>   -3.2811    1.0000 </r>
       <r>   -3.2656    1.0000 </r>
       <r>   -3.2544    1.0000 </r>
       <r>   -3.2009    1.0000 </r>
       <r>   -3.1781    1.0000 </r>
       <r>   -3.1748    1.0000 </r>
       <r>   -3.1707    1.0000 </r>
       <r>   -3.1261    1.0000 </r>
       <r>   -3.1055    1.0000 </r>
       <r>   -3.0415    1.0000 </r>
       <r>   -3.0190    1.0000 </r>
       <r>   -2.9735    1.0000 </r>
       <r>   -2.8820    1.0000 </r>
       <r>   -2.8354    1.0000 </r>
       <r>   -2.6728    1.0000 </r>
       <r>   -2.6109    1.0000 </r>
       <r>   -2.0313    1.0000 </r>
       <r>   -1.9876    1.0000 </r>
       <r>   -1.9580    1.0000 </r>
       <r>   -1.9142    1.0000 </r>
       <r>   -1.8098    1.0000 </r>
       <r>   -1.7731    1.0000 </r>
       <r>   -1.2708    1.0000 </r>
       <r>   -1.1721    1.0000 </r>
       <r>    0.8282    1.0000 </r>
       <r>    0.8639    1.0000 </r>
       <r>    0.9146    1.0000 </r>
       <r>    0.9436    1.0000 </r>
       <r>    0.9579    1.0000 </r>
       <r>    0.9767    1.0000 </r>
       <r>    0.9944    1.0000 </r>
       <r>    1.0126    1.0000 </r>
       <r>    1.0257    1.0000 </r>
       <r>    1.0424    1.0000 </r>
       <r>    1.0433    1.0000 </r>
       <r>    1.0832    1.0000 </r>
       <r>    1.1703    1.0000 </r>
       <r>    1.1739    1.0000 </r>
       <r>    1.2060    1.0000 </r>
       <r>    1.2170    1.0000 </r>
       <r>    1.2421    1.0001 </r>
       <r>    1.2478    1.0001 </r>
       <r>    1.2595    1.0001 </r>
       <r>    1.2608    1.0001 </r>
       <r>    1.2634    1.0001 </r>
       <r>    1.3058    1.0004 </r>
       <r>    1.3113    1.0004 </r>
       <r>    1.3243    1.0006 </r>
       <r>    1.3681    1.0016 </r>
       <r>    1.3786    1.0020 </r>
       <r>    1.3932    1.0027 </r>
       <r>    1.5051    1.0168 </r>
       <r>    1.5482    1.0265 </r>
       <r>    1.6132    1.0354 </r>
       <r>    1.6791    1.0061 </r>
       <r>    1.7020    0.9782 </r>
       <r>    1.7617    0.8464 </r>
       <r>    1.7841    0.7746 </r>
       <r>    1.8359    0.5735 </r>
       <r>    1.8458    0.5319 </r>
       <r>    1.9106    0.2684 </r>
       <r>    1.9736    0.0795 </r>
       <r>    1.9739    0.0787 </r>
       <r>    2.0471   -0.0215 </r>
       <r>    2.0647   -0.0300 </r>
       <r>    2.1262   -0.0330 </r>
       <r>    2.1271   -0.0328 </r>
       <r>    2.1374   -0.0310 </r>
       <r>    2.1477   -0.0289 </r>
       <r>    2.1985   -0.0174 </r>
       <r>    2.2279   -0.0118 </r>
       <r>    2.2449   -0.0091 </r>
       <r>    2.2591   -0.0073 </r>
       <r>    2.3968   -0.0004 </r>
       <r>    2.3995   -0.0004 </r>
       <r>    2.4352   -0.0002 </r>
       <r>    2.4387   -0.0001 </r>
       <r>    2.4451   -0.0001 </r>
       <r>    2.5843   -0.0000 </r>
       <r>    2.9131   -0.0000 </r>
       <r>    3.1373   -0.0000 </r>
       <r>    3.2716   -0.0000 </r>
       <r>    3.2732   -0.0000 </r>
       <r>    3.2944   -0.0000 </r>
       <r>    4.0979   -0.0000 </r>
       <r>    4.5668   -0.0000 </r>
       <r>    4.9509   -0.0000 </r>
       <r>    8.8488    0.0000 </r>
      </set>
     </set>
    </set>
   </array>
  </eigenvalues>
  <separator name="orbital magnetization" >
   <v name="MAGDIPOLOUT">      0.00000000      0.00000000      0.00000000</v>
  </separator>
  <dos>
   <i name="efermi">      1.85338152 </i>
   <total>
    <array>
     <dimension dim="1">gridpoints</dimension>
     <dimension dim="2">spin</dimension>
     <field>energy</field>
     <field>total</field>
     <field>integrated</field>
     <set>
      <set comment="spin 1">
       <r>   -24.7381     0.0000     0.0000 </r>
       <r>   -24.6194     0.0000     0.0000 </r>
       <r>   -24.5008     0.0000     0.0000 </r>
       <r>   -24.3822    -0.0000    -0.0000 </r>
       <r>   -24.2636    -0.0000    -0.0000 </r>
       <r>   -24.1450    -0.0000    -0.0000 </r>
       <r>   -24.0263    -0.0000    -0.0000 </r>
       <r>   -23.9077    -0.0000    -0.0000 </r>
       <r>   -23.7891    -0.0000    -0.0000 </r>
       <r>   -23.6705    -0.0000    -0.0000 </r>
       <r>   -23.5518    -0.0000    -0.0000 </r>
       <r>   -23.4332    -0.0001    -0.0000 </r>
       <r>   -23.3146    -0.0050    -0.0006 </r>
       <r>   -23.1960    -0.0813    -0.0103 </r>
       <r>   -23.0773    -0.5411    -0.0744 </r>
       <r>   -22.9587    -0.8858    -0.1795 </r>
       <r>   -22.8401     3.8914     0.2821 </r>
       <r>   -22.7215    15.9554     2.1748 </r>
       <r>   -22.6029    22.3634     4.8276 </r>
       <r>   -22.4842    22.1603     7.4563 </r>
       <r>   -22.3656    44.7582    12.7656 </r>
       <r>   -22.2470    88.6792    23.2850 </r>
       <r>   -22.1284    93.7859    34.4102 </r>
       <r>   -22.0097    46.5016    39.9263 </r>
       <r>   -21.8911     5.4896    40.5775 </r>
       <r>   -21.7725    -3.4410    40.1693 </r>
       <r>   -21.6539    -1.2605    40.0198 </r>
       <r>   -21.5353    -0.1603    40.0008 </r>
       <r>   -21.4166    -0.0530    39.9945 </r>
       <r>   -21.2980    -0.3349    39.9548 </r>
       <r>   -21.1794    -0.6906    39.8728 </r>
       <r>   -21.0608     2.5321    40.1732 </r>
       <r>   -20.9421    11.8245    41.5759 </r>
       <r>   -20.8235    14.9259    43.3464 </r>
       <r>   -20.7049     6.2944    44.0931 </r>
       <r>   -20.5863    -0.0711    44.0846 </r>
       <r>   -20.4676    -0.5813    44.0157 </r>
       <r>   -20.3490    -0.1220    44.0012 </r>
       <r>   -20.2304    -0.0098    44.0000 </r>
       <r>   -20.1118    -0.0004    44.0000 </r>
       <r>   -19.9932    -0.0000    44.0000 </r>
       <r>   -19.8745    -0.0000    44.0000 </r>
       <r>   -19.7559    -0.0000    44.0000 </r>
       <r>   -19.6373    -0.0000    44.0000 </r>
       <r>   -19.5187     0.0000    44.0000 </r>
       <r>   -19.4000     0.0000    44.0000 </r>
       <r>   -19.2814     0.0000    44.0000 </r>
       <r>   -19.1628     0.0000    44.0000 </r>
       <r>   -19.0442     0.0000    44.0000 </r>
       <r>   -18.9255     0.0000    44.0000 </r>
       <r>   -18.8069     0.0000    44.0000 </r>
       <r>   -18.6883     0.0000    44.0000 </r>
       <r>   -18.5697     0.0000    44.0000 </r>
       <r>   -18.4511     0.0000    44.0000 </r>
       <r>   -18.3324     0.0000    44.0000 </r>
       <r>   -18.2138    -0.0000    44.0000 </r>
       <r>   -18.0952    -0.0000    44.0000 </r>
       <r>   -17.9766    -0.0000    44.0000 </r>
       <r>   -17.8579    -0.0000    44.0000 </r>
       <r>   -17.7393    -0.0000    44.0000 </r>
       <r>   -17.6207    -0.0000    44.0000 </r>
       <r>   -17.5021    -0.0000    44.0000 </r>
       <r>   -17.3835    -0.0000    44.0000 </r>
       <r>   -17.2648    -0.0000    44.0000 </r>
       <r>   -17.1462    -0.0020    43.9998 </r>
       <r>   -17.0276    -0.0393    43.9951 </r>
       <r>   -16.9090    -0.3303    43.9559 </r>
       <r>   -16.7903    -0.7880    43.8625 </r>
       <r>   -16.6717     2.4061    44.1479 </r>
       <r>   -16.5531    12.2668    45.6030 </r>
       <r>   -16.4345    15.3164    47.4199 </r>
       <r>   -16.3158     5.9138    48.1214 </r>
       <r>   -16.1972    -0.3382    48.0812 </r>
       <r>   -16.0786    -0.5746    48.0131 </r>
       <r>   -15.9600    -0.1030    48.0009 </r>
       <r>   -15.8414    -0.0072    48.0000 </r>
       <r>   -15.7227    -0.0002    48.0000 </r>
       <r>   -15.6041    -0.0000    48.0000 </r>
       <r>   -15.4855    -0.0000    48.0000 </r>
       <r>   -15.3669    -0.0000    48.0000 </r>
       <r>   -15.2482    -0.0000    48.0000 </r>
       <r>   -15.1296     0.0000    48.0000 </r>
       <r>   -15.0110     0.0000    48.0000 </r>
       <r>   -14.8924     0.0000    48.0000 </r>
       <r>   -14.7738     0.0000    48.0000 </r>
       <r>   -14.6551     0.0000    48.0000 </r>
       <r>   -14.5365     0.0000    48.0000 </r>
       <r>   -14.4179     0.0000    48.0000 </r>
       <r>   -14.2993     0.0000    48.0000 </r>
       <r>   -14.1806     0.0000    48.0000 </r>
       <r>   -14.0620     0.0000    48.0000 </r>
       <r>   -13.9434     0.0000    48.0000 </r>
       <r>   -13.8248     0.0000    48.0000 </r>
       <r>   -13.7061     0.0000    48.0000 </r>
       <r>   -13.5875     0.0000    48.0000 </r>
       <r>   -13.4689     0.0000    48.0000 </r>
       <r>   -13.3503     0.0000    48.0000 </r>
       <r>   -13.2317     0.0000    48.0000 </r>
       <r>   -13.1130     0.0000    48.0000 </r>
       <r>   -12.9944     0.0000    48.0000 </r>
       <r>   -12.8758     0.0000    48.0000 </r>
       <r>   -12.7572     0.0000    48.0000 </r>
       <r>   -12.6385     0.0000    48.0000 </r>
       <r>   -12.5199     0.0000    48.0000 </r>
       <r>   -12.4013     0.0000    48.0000 </r>
       <r>   -12.2827     0.0000    48.0000 </r>
       <r>   -12.1641     0.0000    48.0000 </r>
       <r>   -12.0454     0.0000    48.0000 </r>
       <r>   -11.9268     0.0000    48.0000 </r>
       <r>   -11.8082     0.0000    48.0000 </r>
       <r>   -11.6896     0.0000    48.0000 </r>
       <r>   -11.5709     0.0000    48.0000 </r>
       <r>   -11.4523     0.0000    48.0000 </r>
       <r>   -11.3337     0.0000    48.0000 </r>
       <r>   -11.2151     0.0000    48.0000 </r>
       <r>   -11.0964     0.0000    48.0000 </r>
       <r>   -10.9778     0.0000    48.0000 </r>
       <r>   -10.8592     0.0000    48.0000 </r>
       <r>   -10.7406     0.0000    48.0000 </r>
       <r>   -10.6220     0.0000    48.0000 </r>
       <r>   -10.5033     0.0000    48.0000 </r>
       <r>   -10.3847     0.0000    48.0000 </r>
       <r>   -10.2661     0.0000    48.0000 </r>
       <r>   -10.1475     0.0000    48.0000 </r>
       <r>   -10.0288     0.0000    48.0000 </r>
       <r>    -9.9102     0.0000    48.0000 </r>
       <r>    -9.7916     0.0000    48.0000 </r>
       <r>    -9.6730     0.0000    48.0000 </r>
       <r>    -9.5544     0.0000    48.0000 </r>
       <r>    -9.4357     0.0000    48.0000 </r>
       <r>    -9.3171     0.0000    48.0000 </r>
       <r>    -9.1985     0.0000    48.0000 </r>
       <r>    -9.0799     0.0000    48.0000 </r>
       <r>    -8.9612     0.0000    48.0000 </r>
       <r>    -8.8426     0.0000    48.0000 </r>
       <r>    -8.7240     0.0000    48.0000 </r>
       <r>    -8.6054     0.0000    48.0000 </r>
       <r>    -8.4867     0.0000    48.0000 </r>
       <r>    -8.3681     0.0000    48.0000 </r>
       <r>    -8.2495     0.0000    48.0000 </r>
       <r>    -8.1309     0.0000    48.0000 </r>
       <r>    -8.0123     0.0000    48.0000 </r>
       <r>    -7.8936    -0.0000    48.0000 </r>
       <r>    -7.7750    -0.0000    48.0000 </r>
       <r>    -7.6564    -0.0000    48.0000 </r>
       <r>    -7.5378    -0.0000    48.0000 </r>
       <r>    -7.4191    -0.0000    48.0000 </r>
       <r>    -7.3005    -0.0000    48.0000 </r>
       <r>    -7.1819    -0.0000    48.0000 </r>
       <r>    -7.0633    -0.0000    48.0000 </r>
       <r>    -6.9446    -0.0000    48.0000 </r>
       <r>    -6.8260    -0.0005    47.9999 </r>
       <r>    -6.7074    -0.0128    47.9984 </r>
       <r>    -6.5888    -0.1380    47.9820 </r>
       <r>    -6.4702    -0.5577    47.9159 </r>
       <r>    -6.3515     0.1193    47.9300 </r>
       <r>    -6.2329     5.7654    48.6140 </r>
       <r>    -6.1143    13.6394    50.2319 </r>
       <r>    -5.9957    16.4341    52.1813 </r>
       <r>    -5.8770    16.8514    54.1803 </r>
       <r>    -5.7584    14.8440    55.9411 </r>
       <r>    -5.6398    10.6619    57.2059 </r>
       <r>    -5.5212    12.6812    58.7102 </r>
       <r>    -5.4026    23.3524    61.4803 </r>
       <r>    -5.2839    25.7209    64.5314 </r>
       <r>    -5.1653    15.2366    66.3388 </r>
       <r>    -5.0467     8.4829    67.3450 </r>
       <r>    -4.9281     3.9960    67.8191 </r>
       <r>    -4.8094     0.3469    67.8602 </r>
       <r>    -4.6908     8.4488    68.8624 </r>
       <r>    -4.5722    24.1261    71.7243 </r>
       <r>    -4.4536    41.4656    76.6431 </r>
       <r>    -4.3349    76.7075    85.7423 </r>
       <r>    -4.2163   109.4715    98.7282 </r>
       <r>    -4.0977   104.5224   111.1269 </r>
       <r>    -3.9791    69.1165   119.3257 </r>
       <r>    -3.8605    35.5087   123.5378 </r>
       <r>    -3.7418    23.3451   126.3071 </r>
       <r>    -3.6232    33.4368   130.2735 </r>
       <r>    -3.5046    50.7870   136.2980 </r>
       <r>    -3.3860    50.1932   142.2520 </r>
       <r>    -3.2673    52.1644   148.4399 </r>
       <r>    -3.1487    67.6630   156.4663 </r>
       <r>    -3.0301    62.6137   163.8937 </r>
       <r>    -2.9115    40.2043   168.6628 </r>
       <r>    -2.7929    23.9608   171.5051 </r>
       <r>    -2.6742    18.1846   173.6622 </r>
       <r>    -2.5556    14.6686   175.4023 </r>
       <r>    -2.4370     5.7183   176.0806 </r>
       <r>    -2.3184    -1.1571   175.9433 </r>
       <r>    -2.1997    -1.2465   175.7955 </r>
       <r>    -2.0811     9.4931   176.9216 </r>
       <r>    -1.9625    28.6900   180.3249 </r>
       <r>    -1.8439    35.1333   184.4925 </r>
       <r>    -1.7252    23.3557   187.2630 </r>
       <r>    -1.6066     7.2037   188.1175 </r>
       <r>    -1.4880    -0.8818   188.0129 </r>
       <r>    -1.3694     1.9537   188.2446 </r>
       <r>    -1.2508    11.0810   189.5591 </r>
       <r>    -1.1321    14.2238   191.2464 </r>
       <r>    -1.0135     6.7442   192.0464 </r>
       <r>    -0.8949     0.3479   192.0877 </r>
       <r>    -0.7763    -0.5729   192.0197 </r>
       <r>    -0.6576    -0.1509   192.0018 </r>
       <r>    -0.5390    -0.0145   192.0001 </r>
       <r>    -0.4204    -0.0006   192.0000 </r>
       <r>    -0.3018    -0.0000   192.0000 </r>
       <r>    -0.1832    -0.0000   192.0000 </r>
       <r>    -0.0645    -0.0000   192.0000 </r>
       <r>     0.0541    -0.0000   192.0000 </r>
       <r>     0.1727    -0.0004   191.9999 </r>
       <r>     0.2913    -0.0128   191.9984 </r>
       <r>     0.4100    -0.1803   191.9770 </r>
       <r>     0.5286    -1.1399   191.8418 </r>
       <r>     0.6472    -2.3353   191.5648 </r>
       <r>     0.7658     5.8229   192.2555 </r>
       <r>     0.8845    37.1604   196.6636 </r>
       <r>     1.0031    74.5491   205.5068 </r>
       <r>     1.1217    88.8164   216.0425 </r>
       <r>     1.2403    99.5970   227.8570 </r>
       <r>     1.3589    98.1789   239.5032 </r>
       <r>     1.4776    61.2277   246.7662 </r>
       <r>     1.5962    34.6147   250.8723 </r>
       <r>     1.7148    38.4382   255.4319 </r>
       <r>     1.8334    47.1738   261.0278 </r>
       <r>     1.9521    49.6541   266.9179 </r>
       <r>     2.0707    58.6704   273.8776 </r>
       <r>     2.1893    69.3101   282.0993 </r>
       <r>     2.3079    62.3803   289.4990 </r>
       <r>     2.4265    51.4839   295.6062 </r>
       <r>     2.5452    37.9034   300.1024 </r>
       <r>     2.6638    15.3552   301.9239 </r>
       <r>     2.7824     2.9744   302.2767 </r>
       <r>     2.9010     4.6506   302.8284 </r>
       <r>     3.0197     7.7633   303.7493 </r>
       <r>     3.1383    13.1581   305.3101 </r>
       <r>     3.2569    25.2181   308.3016 </r>
       <r>     3.3755    24.5869   311.2182 </r>
       <r>     3.4942     8.3817   312.2124 </r>
       <r>     3.6128    -0.7668   312.1215 </r>
       <r>     3.7314    -1.0812   311.9932 </r>
       <r>     3.8500    -0.5290   311.9304 </r>
       <r>     3.9686     1.6029   312.1206 </r>
       <r>     4.0873     6.6282   312.9068 </r>
       <r>     4.2059     7.1428   313.7542 </r>
       <r>     4.3245     2.0477   313.9971 </r>
       <r>     4.4431     1.5156   314.1768 </r>
       <r>     4.5618     6.4634   314.9435 </r>
       <r>     4.6804     6.7469   315.7439 </r>
       <r>     4.7990     3.1003   316.1116 </r>
       <r>     4.9176     5.4244   316.7551 </r>
       <r>     5.0363     7.6191   317.6589 </r>
       <r>     5.1549     3.3340   318.0544 </r>
       <r>     5.2735    -0.0796   318.0449 </r>
       <r>     5.3921    -0.3134   318.0078 </r>
       <r>     5.5107    -0.0609   318.0005 </r>
       <r>     5.6294    -0.0045   318.0000 </r>
       <r>     5.7480    -0.0001   318.0000 </r>
       <r>     5.8666    -0.0000   318.0000 </r>
       <r>     5.9852    -0.0000   318.0000 </r>
       <r>     6.1039    -0.0000   318.0000 </r>
       <r>     6.2225    -0.0000   318.0000 </r>
       <r>     6.3411     0.0000   318.0000 </r>
       <r>     6.4597     0.0000   318.0000 </r>
       <r>     6.5783     0.0000   318.0000 </r>
       <r>     6.6970     0.0000   318.0000 </r>
       <r>     6.8156     0.0000   318.0000 </r>
       <r>     6.9342     0.0000   318.0000 </r>
       <r>     7.0528     0.0000   318.0000 </r>
       <r>     7.1715    -0.0000   318.0000 </r>
       <r>     7.2901    -0.0000   318.0000 </r>
       <r>     7.4087    -0.0000   318.0000 </r>
       <r>     7.5273    -0.0000   318.0000 </r>
       <r>     7.6460    -0.0000   318.0000 </r>
       <r>     7.7646    -0.0000   318.0000 </r>
       <r>     7.8832    -0.0000   318.0000 </r>
       <r>     8.0018    -0.0000   318.0000 </r>
       <r>     8.1204    -0.0000   318.0000 </r>
       <r>     8.2391    -0.0012   317.9999 </r>
       <r>     8.3577    -0.0226   317.9972 </r>
       <r>     8.4763    -0.1812   317.9757 </r>
       <r>     8.5949    -0.3881   317.9297 </r>
       <r>     8.7136     1.4152   318.0975 </r>
       <r>     8.8322     6.4290   318.8602 </r>
       <r>     8.9508     7.5122   319.7513 </r>
       <r>     9.0694     2.6497   320.0656 </r>
       <r>     9.1880    -0.2375   320.0374 </r>
       <r>     9.3067    -0.2679   320.0056 </r>
       <r>     9.4253    -0.0445   320.0004 </r>
       <r>     9.5439    -0.0029   320.0000 </r>
       <r>     9.6625    -0.0001   320.0000 </r>
       <r>     9.7812    -0.0000   320.0000 </r>
       <r>     9.8998    -0.0000   320.0000 </r>
       <r>    10.0184    -0.0000   320.0000 </r>
       <r>    10.1370    -0.0000   320.0000 </r>
       <r>    10.2557     0.0000   320.0000 </r>
       <r>    10.3743     0.0000   320.0000 </r>
       <r>    10.4929     0.0000   320.0000 </r>
       <r>    10.6115     0.0000   320.0000 </r>
       <r>    10.7301     0.0000   320.0000 </r>
       <r>    10.8488     0.0000   320.0000 </r>
      </set>
     </set>
    </array>
   </total>
  </dos>
 </calculation>
 <structure name="finalpos" >
  <crystal>
   <varray name="basis" >
    <v>       3.25262800      -0.01869800       0.00000000 </v>
    <v>       0.03063600      20.54938400       0.08164400 </v>
    <v>       0.00000000       0.00000000       6.79221100 </v>
   </varray>
   <i name="volume">    453.99189003 </i>
   <varray name="rec_basis" >
    <v>       0.30744107      -0.00045835       0.00000000 </v>
    <v>       0.00027974       0.04866284       0.00000000 </v>
    <v>      -0.00000336      -0.00058494       0.14722746 </v>
   </varray>
  </crystal>
  <varray name="positions" >
   <v>       0.00000000       0.16671900       0.50139100 </v>
   <v>       0.99354400       0.83328100       0.50139100 </v>
   <v>       0.00000000       0.66671900       0.00139100 </v>
   <v>       0.00000000       0.33328100       0.00139100 </v>
   <v>       0.50559900       0.16602100       0.00000400 </v>
   <v>       0.50000000       0.83397900       0.00000400 </v>
   <v>       0.50000000       0.66602100       0.50000400 </v>
   <v>       0.50000000       0.33397900       0.49841900 </v>
   <v>       0.00000000       0.00000000       0.01216200 </v>
   <v>       0.00000000       0.50000000       0.51216200 </v>
   <v>       0.50000000       0.00000000       0.47240000 </v>
   <v>       0.50000000       0.50000000       0.97240000 </v>
   <v>       0.00000000       0.00000000       0.31436200 </v>
   <v>       0.00000000       0.50000000       0.81436200 </v>
   <v>       0.00000000       0.16816900       0.20329900 </v>
   <v>       0.00000000       0.83183100       0.20329900 </v>
   <v>       0.99544400       0.66816900       0.69615200 </v>
   <v>       0.00000000       0.33183100       0.70329900 </v>
   <v>       0.00000000       0.16838200       0.79934600 </v>
   <v>       0.00000000       0.83161800       0.79934600 </v>
   <v>       0.00000000       0.66838200       0.29934600 </v>
   <v>       0.00000000       0.33161800       0.29934600 </v>
   <v>       0.50000000       0.06837200       0.99633700 </v>
   <v>       0.50000000       0.93162800       0.99633700 </v>
   <v>       0.50000000       0.56837200       0.49633700 </v>
   <v>       0.50000000       0.43162800       0.49633700 </v>
   <v>       0.50000000       0.08894200       0.50567900 </v>
   <v>       0.50000000       0.90181600       0.49938200 </v>
   <v>       0.50000000       0.59818400       0.00567900 </v>
   <v>       0.50000000       0.40181600       0.00567900 </v>
   <v>       0.50000000       0.23406000       0.50152500 </v>
   <v>       0.50826400       0.76594000       0.50152500 </v>
   <v>       0.50000000       0.73406000       0.00152500 </v>
   <v>       0.50000000       0.26594000       0.00152500 </v>
   <v>       0.00000000       0.00000000       0.69474100 </v>
   <v>       0.00000000       0.50000000       0.19474100 </v>
  </varray>
 </structure>
</modeling>
