<?xml version="1.0" encoding="ISO-8859-1"?>
<modeling>
 <generator>
  <i name="program" type="string">vasp </i>
  <i name="version" type="string">5.3.5  </i>
  <i name="subversion" type="string">31Mar14 (build Aug 29 2014 19:41:47) complex                          parallel </i>
  <i name="platform" type="string">LinuxIFC </i>
  <i name="date" type="string">2019 04 11 </i>
  <i name="time" type="string">13:05:10 </i>
 </generator>
 <incar>
  <i type="string" name="SYSTEM"> Fe4OF7_var_32</i>
  <i type="int" name="ISTART">     0</i>
  <i type="string" name="PREC">normal</i>
  <i type="string" name="ALGO"> VeryFast</i>
  <i type="int" name="ISPIN">     1</i>
  <i type="int" name="ICHARG">     2</i>
  <i type="int" name="NELM">   300</i>
  <i type="int" name="ISYM">     0</i>
  <i type="logical" name="LWAVE"> F  </i>
  <i type="int" name="NELM">   300</i>
 </incar>
 <kpoints>
  <generation param="Gamma">
   <v type="int" name="divisions">       1        1        1 </v>
   <v name="usershift">      0.00000000       0.00000000       0.00000000 </v>
   <v name="genvec1">      1.00000000       0.00000000       0.00000000 </v>
   <v name="genvec2">      0.00000000       1.00000000       0.00000000 </v>
   <v name="genvec3">      0.00000000       0.00000000       1.00000000 </v>
   <v name="shift">      0.00000000       0.00000000       0.00000000 </v>
  </generation>
  <varray name="kpointlist" >
   <v>       0.00000000       0.00000000       0.00000000 </v>
  </varray>
  <varray name="weights" >
   <v>       1.00000000 </v>
  </varray>
 </kpoints>
 <parameters>
  <separator name="general" >
   <i type="string" name="SYSTEM">Fe4OF7_var_32</i>
   <i type="logical" name="LCOMPAT"> F  </i>
  </separator>
  <separator name="electronic" >
   <i type="string" name="PREC">normal</i>
   <i name="ENMAX">    400.00000000</i>
   <i name="ENAUG">    613.61400000</i>
   <i name="EDIFF">      0.00010000</i>
   <i type="int" name="IALGO">    48</i>
   <i type="int" name="IWAVPR">    10</i>
   <i type="int" name="NBANDS">   104</i>
   <i name="NELECT">    174.00000000</i>
   <i type="int" name="TURBO">     0</i>
   <i type="int" name="IRESTART">     0</i>
   <i type="int" name="NREBOOT">     0</i>
   <i type="int" name="NMIN">     0</i>
   <i name="EREF">      0.00000000</i>
   <separator name="electronic smearing" >
    <i type="int" name="ISMEAR">     1</i>
    <i name="SIGMA">      0.20000000</i>
    <i name="KSPACING">      0.50000000</i>
    <i type="logical" name="KGAMMA"> T  </i>
   </separator>
   <separator name="electronic projectors" >
    <i type="logical" name="LREAL"> F  </i>
    <v name="ROPT">      0.00000000      0.00000000      0.00000000</v>
    <i type="int" name="LMAXPAW">  -100</i>
    <i type="int" name="LMAXMIX">     2</i>
    <i type="logical" name="NLSPLINE"> F  </i>
   </separator>
   <separator name="electronic startup" >
    <i type="int" name="ISTART">     0</i>
    <i type="int" name="ICHARG">     2</i>
    <i type="int" name="INIWAV">     1</i>
   </separator>
   <separator name="electronic spin" >
    <i type="int" name="ISPIN">     1</i>
    <i type="logical" name="LNONCOLLINEAR"> F  </i>
    <v name="MAGMOM">      1.00000000      1.00000000      1.00000000      1.00000000      1.00000000      1.00000000      1.00000000      1.00000000      1.00000000      1.00000000      1.00000000      1.00000000      1.00000000      1.00000000      1.00000000      1.00000000      1.00000000      1.00000000      1.00000000      1.00000000
      1.00000000      1.00000000      1.00000000      1.00000000</v>
    <i name="NUPDOWN">     -1.00000000</i>
    <i type="logical" name="LSORBIT"> F  </i>
    <v name="SAXIS">      0.00000000      0.00000000      1.00000000</v>
    <i type="logical" name="LSPIRAL"> F  </i>
    <v name="QSPIRAL">      0.00000000      0.00000000      0.00000000</v>
    <i type="logical" name="LZEROZ"> F  </i>
   </separator>
   <separator name="electronic exchange-correlation" >
    <i type="logical" name="LASPH"> F  </i>
    <i type="logical" name="LMETAGGA"> F  </i>
   </separator>
   <separator name="electronic convergence" >
    <i type="int" name="NELM">   300</i>
    <i type="int" name="NELMDL">   -12</i>
    <i type="int" name="NELMIN">     2</i>
    <i name="ENINI">    400.00000000</i>
    <separator name="electronic convergence detail" >
     <i type="logical" name="LDIAG"> T  </i>
     <i type="logical" name="LSUBROT"> F  </i>
     <i name="WEIMIN">      0.00000000</i>
     <i name="EBREAK">      0.00000024</i>
     <i name="DEPER">      0.30000000</i>
     <i type="int" name="NRMM">     4</i>
     <i name="TIME">      0.40000000</i>
    </separator>
   </separator>
   <separator name="electronic mixer" >
    <i name="AMIX">      0.40000000</i>
    <i name="BMIX">      1.00000000</i>
    <i name="AMIN">      0.10000000</i>
    <i name="AMIX_MAG">      1.60000000</i>
    <i name="BMIX_MAG">      1.00000000</i>
    <separator name="electronic mixer details" >
     <i type="int" name="IMIX">     4</i>
     <i type="int" name="MAXMIX">   -45</i>
     <i name="WC">    100.00000000</i>
     <i type="int" name="INIMIX">     1</i>
     <i type="int" name="MIXPRE">     1</i>
     <i type="int" name="MREMOVE">     5</i>
    </separator>
   </separator>
   <separator name="electronic dipolcorrection" >
    <i type="logical" name="LDIPOL"> F  </i>
    <i type="logical" name="LMONO"> F  </i>
    <i type="int" name="IDIPOL">     0</i>
    <i name="EPSILON">      1.00000000</i>
    <v name="DIPOL">   -100.00000000   -100.00000000   -100.00000000</v>
    <i name="EFIELD">      0.00000000</i>
   </separator>
  </separator>
  <separator name="grids" >
   <i type="int" name="NGX">    28</i>
   <i type="int" name="NGY">    24</i>
   <i type="int" name="NGZ">    54</i>
   <i type="int" name="NGXF">    56</i>
   <i type="int" name="NGYF">    48</i>
   <i type="int" name="NGZF">   108</i>
   <i type="logical" name="ADDGRID"> F  </i>
  </separator>
  <separator name="ionic" >
   <i type="int" name="NSW">     0</i>
   <i type="int" name="IBRION">    -1</i>
   <i type="int" name="ISIF">     2</i>
   <i name="PSTRESS">      0.00000000</i>
   <i name="EDIFFG">      0.00100000</i>
   <i type="int" name="NFREE">     0</i>
   <i name="POTIM">      0.50000000</i>
   <i name="SMASS">     -3.00000000</i>
   <i name="SCALEE">      1.00000000</i>
  </separator>
  <separator name="ionic md" >
   <i name="TEBEG">      0.00010000</i>
   <i name="TEEND">      0.00010000</i>
   <i type="int" name="NBLOCK">     1</i>
   <i type="int" name="KBLOCK">     1</i>
   <i type="int" name="NPACO">   256</i>
   <i name="APACO">     16.00000000</i>
  </separator>
  <separator name="symmetry" >
   <i type="int" name="ISYM">     0</i>
   <i name="SYMPREC">      0.00001000</i>
  </separator>
  <separator name="dos" >
   <i type="logical" name="LORBIT"> F  </i>
   <v name="RWIGS">     -1.00000000     -1.00000000     -1.00000000</v>
   <i type="int" name="NEDOS">   301</i>
   <i name="EMIN">     10.00000000</i>
   <i name="EMAX">    -10.00000000</i>
   <i name="EFERMI">      0.00000000</i>
  </separator>
  <separator name="writing" >
   <i type="int" name="NWRITE">     2</i>
   <i type="logical" name="LWAVE"> F  </i>
   <i type="logical" name="LCHARG"> T  </i>
   <i type="logical" name="LPARD"> F  </i>
   <i type="logical" name="LVTOT"> F  </i>
   <i type="logical" name="LVHAR"> F  </i>
   <i type="logical" name="LELF"> F  </i>
   <i type="logical" name="LOPTICS"> F  </i>
   <v name="STM">      0.00000000      0.00000000      0.00000000      0.00000000      0.00000000      0.00000000      0.00000000</v>
  </separator>
  <separator name="performance" >
   <i type="int" name="NPAR">     4</i>
   <i type="int" name="NSIM">     4</i>
   <i type="int" name="NBLK">    -1</i>
   <i type="logical" name="LPLANE"> T  </i>
   <i type="logical" name="LSCALAPACK"> T  </i>
   <i type="logical" name="LSCAAWARE"> F  </i>
   <i type="logical" name="LSCALU"> F  </i>
   <i type="logical" name="LASYNC"> F  </i>
   <i type="logical" name="LORBITALREAL"> F  </i>
  </separator>
  <separator name="miscellaneous" >
   <i type="int" name="IDIOT">     3</i>
   <i type="logical" name="LMUSIC"> F  </i>
   <v name="POMASS">     55.84700000     16.00000000     18.99800000</v>
   <v name="DARWINR">      0.00000000      0.00000000      0.00000000</v>
   <v name="DARWINV">      1.00000000      1.00000000      1.00000000</v>
   <i type="logical" name="LCORR"> T  </i>
  </separator>
  <i type="logical" name="GGA_COMPAT"> T  </i>
  <i type="logical" name="LBERRY"> F  </i>
  <i type="int" name="ICORELEVEL">     0</i>
  <i type="logical" name="LDAU"> F  </i>
  <i type="int" name="I_CONSTRAINED_M">     0</i>
  <separator name="electronic exchange-correlation" >
   <i type="string" name="GGA">--</i>
   <i type="int" name="VOSKOWN">     0</i>
   <i type="logical" name="LHFCALC"> F  </i>
   <i type="string" name="PRECFOCK"></i>
   <i type="logical" name="LSYMGRAD"> F  </i>
   <i type="logical" name="LHFONE"> F  </i>
   <i type="logical" name="LRHFCALC"> F  </i>
   <i type="logical" name="LTHOMAS"> F  </i>
   <i type="logical" name="LMODELHF"> F  </i>
   <i name="ENCUT4O">     -1.00000000</i>
   <i type="int" name="EXXOEP">     0</i>
   <i type="int" name="FOURORBIT">     0</i>
   <i name="AEXX">      0.00000000</i>
   <i name="HFALPHA">      0.00000000</i>
   <i name="MCALPHA">      0.00000000</i>
   <i name="ALDAX">      1.00000000</i>
   <i name="AGGAX">      1.00000000</i>
   <i name="ALDAC">      1.00000000</i>
   <i name="AGGAC">      1.00000000</i>
   <i type="int" name="NKREDX">     1</i>
   <i type="int" name="NKREDY">     1</i>
   <i type="int" name="NKREDZ">     1</i>
   <i type="logical" name="SHIFTRED"> F  </i>
   <i type="logical" name="ODDONLY"> F  </i>
   <i type="logical" name="EVENONLY"> F  </i>
   <i type="int" name="LMAXFOCK">     0</i>
   <i type="int" name="NMAXFOCKAE">     0</i>
   <i type="logical" name="LFOCKAEDFT"> F  </i>
   <i name="HFSCREEN">      0.00000000</i>
   <i name="HFSCREENC">      0.00000000</i>
   <i type="int" name="NBANDSGWLOW">     0</i>
  </separator>
  <separator name="vdW DFT" >
   <i type="logical" name="LUSE_VDW"> F  </i>
   <i name="Zab_VDW">     -0.84910000</i>
   <i name="PARAM1">      0.12340000</i>
   <i name="PARAM2">      1.00000000</i>
   <i name="PARAM3">      0.00000000</i>
  </separator>
  <separator name="model GW" >
   <i type="int" name="MODEL_GW">     0</i>
   <i name="MODEL_EPS0">      7.49928931</i>
   <i name="MODEL_ALPHA">      1.00000000</i>
  </separator>
  <separator name="linear response parameters" >
   <i type="logical" name="LEPSILON"> F  </i>
   <i type="logical" name="LRPA"> F  </i>
   <i type="logical" name="LNABLA"> F  </i>
   <i type="logical" name="LVEL"> F  </i>
   <i type="int" name="KINTER">     0</i>
   <i name="CSHIFT">      0.10000000</i>
   <i name="OMEGAMAX">     -1.00000000</i>
   <i name="DEG_THRESHOLD">      0.00200000</i>
  </separator>
  <separator name="orbital magnetization" >
   <i type="logical" name="NUCIND"> F  </i>
   <v name="MAGPOS">      0.00000000      0.00000000      0.00000000</v>
   <i type="logical" name="LNICSALL"> T  </i>
   <i type="logical" name="ORBITALMAG"> F  </i>
   <i type="logical" name="LMAGBLOCH"> F  </i>
   <i type="logical" name="LCHIMAG"> F  </i>
   <i type="logical" name="LGAUGE"> T  </i>
   <i type="int" name="MAGATOM">     0</i>
   <v name="MAGDIPOL">      0.00000000      0.00000000      0.00000000</v>
   <v name="AVECCONST">      0.00000000      0.00000000      0.00000000</v>
  </separator>
  <separator name="response functions" >
   <i type="logical" name="LADDER"> F  </i>
   <i type="logical" name="LFXC"> F  </i>
   <i type="logical" name="LHARTREE"> T  </i>
   <i type="int" name="IBSE">     0</i>
   <i type="logical" name="LTCTE"> F  </i>
   <i type="logical" name="LTETE"> F  </i>
   <i type="logical" name="LTRIPLET"> F  </i>
   <i type="logical" name="LFXCEPS"> F  </i>
   <i type="logical" name="LFXHEG"> F  </i>
   <i type="logical" name="L2ORDER"> F  </i>
   <i type="logical" name="LUSEW"> F  </i>
   <i name="ENCUTGW">     -2.00000000</i>
   <i name="ENCUTGWSOFT">     -2.00000000</i>
   <i name="ENCUTLF">     -1.00000000</i>
   <i type="int" name="LMAXMP2">    -1</i>
   <i name="SCISSOR">      0.00000000</i>
   <i type="int" name="NOMEGA">     0</i>
   <i type="int" name="NOMEGAR">     0</i>
   <i type="int" name="NBANDSGW">    -1</i>
   <i type="int" name="NBANDSO">    -1</i>
   <i type="int" name="NBANDSV">    -1</i>
   <i type="int" name="NELM">   300</i>
   <i type="int" name="DIM">     3</i>
   <i type="int" name="ANTIRES">     0</i>
   <i name="OMEGAMAX">    -30.00000000</i>
   <i name="OMEGAMIN">    -30.00000000</i>
   <i name="OMEGATL">   -200.00000000</i>
   <i type="int" name="OMEGAGRID">     0</i>
   <i name="CSHIFT">     -0.10000000</i>
   <i type="logical" name="SELFENERGY"> F  </i>
   <i type="logical" name="LSPECTRAL"> F  </i>
   <i type="logical" name="ODDONLYGW"> F  </i>
   <i type="logical" name="EVENONLYGW"> F  </i>
   <i type="int" name="NKREDLFX">     1</i>
   <i type="int" name="NKREDLFY">     1</i>
   <i type="int" name="NKREDLFZ">     1</i>
   <i type="int" name="MAXMEM">  1800</i>
   <i type="int" name="TELESCOPE">     0</i>
   <i type="int" name="TAUPAR">     1</i>
  </separator>
  <separator name="External order field" >
   <i name="OFIELD_KAPPA">      0.00000000</i>
   <v name="OFIELD_K">      0.00000000      0.00000000      0.00000000</v>
   <i name="OFIELD_Q6_NEAR">      0.00000000</i>
   <i name="OFIELD_Q6_FAR">      0.00000000</i>
   <i name="OFIELD_A">      0.00000000</i>
  </separator>
 </parameters>
 <atominfo>
  <atoms>      24 </atoms>
  <types>       3 </types>
  <array name="atoms" >
   <dimension dim="1">ion</dimension>
   <field type="string">element</field>
   <field type="int">atomtype</field>
   <set>
    <rc><c>Fe</c><c>   1</c></rc>
    <rc><c>Fe</c><c>   1</c></rc>
    <rc><c>Fe</c><c>   1</c></rc>
    <rc><c>Fe</c><c>   1</c></rc>
    <rc><c>Fe</c><c>   1</c></rc>
    <rc><c>Fe</c><c>   1</c></rc>
    <rc><c>Fe</c><c>   1</c></rc>
    <rc><c>Fe</c><c>   1</c></rc>
    <rc><c>O </c><c>   2</c></rc>
    <rc><c>O </c><c>   2</c></rc>
    <rc><c>F </c><c>   3</c></rc>
    <rc><c>F </c><c>   3</c></rc>
    <rc><c>F </c><c>   3</c></rc>
    <rc><c>F </c><c>   3</c></rc>
    <rc><c>F </c><c>   3</c></rc>
    <rc><c>F </c><c>   3</c></rc>
    <rc><c>F </c><c>   3</c></rc>
    <rc><c>F </c><c>   3</c></rc>
    <rc><c>F </c><c>   3</c></rc>
    <rc><c>F </c><c>   3</c></rc>
    <rc><c>F </c><c>   3</c></rc>
    <rc><c>F </c><c>   3</c></rc>
    <rc><c>F </c><c>   3</c></rc>
    <rc><c>F </c><c>   3</c></rc>
   </set>
  </array>
  <array name="atomtypes" >
   <dimension dim="1">type</dimension>
   <field type="int">atomspertype</field>
   <field type="string">element</field>
   <field>mass</field>
   <field>valence</field>
   <field type="string">pseudopotential</field>
   <set>
    <rc><c>   8</c><c>Fe</c><c>     55.84700000</c><c>      8.00000000</c><c>  PAW_PBE Fe 06Sep2000                  </c></rc>
    <rc><c>   2</c><c>O </c><c>     16.00000000</c><c>      6.00000000</c><c>  PAW_PBE O 08Apr2002                   </c></rc>
    <rc><c>  14</c><c>F </c><c>     18.99800000</c><c>      7.00000000</c><c>  PAW_PBE F 08Apr2002                   </c></rc>
   </set>
  </array>
 </atominfo>
 <structure name="initialpos" >
  <crystal>
   <varray name="basis" >
    <v>       5.73591900      -0.02312300      -0.79026700 </v>
    <v>       0.00000000       4.78544200       0.00000000 </v>
    <v>       0.00000000       0.00000000      10.92836100 </v>
   </varray>
   <i name="volume">    299.97157231 </i>
   <varray name="rec_basis" >
    <v>       0.17433998       0.00000000       0.00000000 </v>
    <v>       0.00084240       0.20896711       0.00000000 </v>
    <v>       0.01260712       0.00000000       0.09150503 </v>
   </varray>
  </crystal>
  <varray name="positions" >
   <v>       0.24699400       0.24850600       0.74623300 </v>
   <v>       0.24699400       0.75149400       0.24623300 </v>
   <v>       0.51485700       0.24497600       0.49879200 </v>
   <v>       0.51485700       0.75502400       0.99879200 </v>
   <v>       0.75373900       0.23127500       0.26486200 </v>
   <v>       0.75373900       0.76872500       0.76486200 </v>
   <v>       0.99045900       0.24137200       0.99652900 </v>
   <v>       0.99045900       0.75862800       0.49652900 </v>
   <v>       0.77857200       0.05847800       0.41725200 </v>
   <v>       0.77857200       0.94152200       0.91725200 </v>
   <v>       0.01370000       0.05755600       0.18278600 </v>
   <v>       0.01370000       0.94244400       0.68278600 </v>
   <v>       0.22224900       0.44944100       0.57080400 </v>
   <v>       0.22224900       0.55055900       0.07080400 </v>
   <v>       0.27923300       0.05174700       0.92203700 </v>
   <v>       0.27923300       0.94766700       0.42203700 </v>
   <v>       0.48187500       0.45353000       0.31584000 </v>
   <v>       0.48664300       0.54647000       0.81584000 </v>
   <v>       0.52253600       0.03560000       0.67416600 </v>
   <v>       0.52253600       0.96440000       0.17416600 </v>
   <v>       0.72235300       0.43595400       0.09109400 </v>
   <v>       0.72235300       0.55698000       0.58829000 </v>
   <v>       0.97343300       0.45650500       0.81898600 </v>
   <v>       0.97343300       0.54349500       0.31960400 </v>
  </varray>
 </structure>
 <calculation>
  <scstep>
   <time name="diag">    0.17    0.25</time>
   <time name="diis">    0.12    0.20</time>
   <time name="orth">    0.18    0.22</time>
   <time name="total">    0.57    0.88</time>
   <energy>
    <i name="alphaZ">    631.51671108 </i>
    <i name="ewald"> -10598.60077807 </i>
    <i name="hartreedc">  -4397.88416437 </i>
    <i name="XCdc">    595.32759522 </i>
    <i name="pawpsdc">  12680.77512887 </i>
    <i name="pawaedc"> -12817.41364524 </i>
    <i name="eentropy">     -0.02851338 </i>
    <i name="bandstr">   1174.83555212 </i>
    <i name="atom">  14851.27451460 </i>
    <i name="e_fr_energy">   2119.80240082 </i>
    <i name="e_wo_entrp">   2119.83091421 </i>
    <i name="e_0_energy">   2119.81190528 </i>
   </energy>
  </scstep>
  <scstep>
   <time name="diag">    0.21    0.21</time>
   <time name="diis">    0.11    0.20</time>
   <time name="orth">    0.01    0.02</time>
   <time name="total">    0.34    0.44</time>
   <energy>
    <i name="e_fr_energy">    645.21591791 </i>
    <i name="e_wo_entrp">    645.19909328 </i>
    <i name="e_0_energy">    645.21030970 </i>
   </energy>
  </scstep>
  <scstep>
   <time name="diag">    0.05    0.08</time>
   <time name="diis">    0.14    0.15</time>
   <time name="orth">    0.01    0.01</time>
   <time name="total">    0.20    0.25</time>
   <energy>
    <i name="e_fr_energy">    226.68407360 </i>
    <i name="e_wo_entrp">    226.66006711 </i>
    <i name="e_0_energy">    226.67607144 </i>
   </energy>
  </scstep>
  <scstep>
   <time name="diag">    0.04    0.08</time>
   <time name="diis">    0.10    0.17</time>
   <time name="orth">    0.03    0.06</time>
   <time name="total">    0.25    0.47</time>
   <energy>
    <i name="e_fr_energy">     44.64004400 </i>
    <i name="e_wo_entrp">     44.73801085 </i>
    <i name="e_0_energy">     44.67269962 </i>
   </energy>
  </scstep>
  <scstep>
   <time name="diag">    0.30    0.48</time>
   <time name="diis">    0.12    0.19</time>
   <time name="orth">    0.01    0.02</time>
   <time name="total">    0.47    0.77</time>
   <energy>
    <i name="e_fr_energy">    -60.24106725 </i>
    <i name="e_wo_entrp">    -60.33082155 </i>
    <i name="e_0_energy">    -60.27098535 </i>
   </energy>
  </scstep>
  <scstep>
   <time name="diag">    0.05    0.06</time>
   <time name="diis">    0.12    0.16</time>
   <time name="orth">    0.06    0.06</time>
   <time name="total">    0.23    0.28</time>
   <energy>
    <i name="e_fr_energy">   -110.34225179 </i>
    <i name="e_wo_entrp">   -110.37114826 </i>
    <i name="e_0_energy">   -110.35188394 </i>
   </energy>
  </scstep>
  <scstep>
   <time name="diag">    0.10    0.10</time>
   <time name="diis">    0.13    0.16</time>
   <time name="orth">    0.01    0.02</time>
   <time name="total">    0.24    0.27</time>
   <energy>
    <i name="e_fr_energy">   -134.68894597 </i>
    <i name="e_wo_entrp">   -134.70126143 </i>
    <i name="e_0_energy">   -134.69305112 </i>
   </energy>
  </scstep>
  <scstep>
   <time name="diag">    0.26    0.42</time>
   <time name="diis">    0.14    0.21</time>
   <time name="orth">    0.02    0.02</time>
   <time name="total">    0.42    0.65</time>
   <energy>
    <i name="e_fr_energy">   -144.89198980 </i>
    <i name="e_wo_entrp">   -144.93276144 </i>
    <i name="e_0_energy">   -144.90558034 </i>
   </energy>
  </scstep>
  <scstep>
   <time name="diag">    0.07    0.08</time>
   <time name="diis">    0.36    0.48</time>
   <time name="orth">    0.02    0.04</time>
   <time name="total">    0.46    0.59</time>
   <energy>
    <i name="e_fr_energy">   -155.27663599 </i>
    <i name="e_wo_entrp">   -155.32554156 </i>
    <i name="e_0_energy">   -155.29293785 </i>
   </energy>
  </scstep>
  <scstep>
   <time name="diag">    0.03    0.06</time>
   <time name="diis">    0.35    0.55</time>
   <time name="orth">    0.07    0.11</time>
   <time name="total">    0.45    0.73</time>
   <energy>
    <i name="e_fr_energy">   -155.63054141 </i>
    <i name="e_wo_entrp">   -155.67222823 </i>
    <i name="e_0_energy">   -155.64443702 </i>
   </energy>
  </scstep>
  <scstep>
   <time name="diag">    0.07    0.09</time>
   <time name="diis">    0.31    0.47</time>
   <time name="orth">    0.02    0.03</time>
   <time name="total">    0.40    0.59</time>
   <energy>
    <i name="e_fr_energy">   -155.90273221 </i>
    <i name="e_wo_entrp">   -155.94621502 </i>
    <i name="e_0_energy">   -155.91722648 </i>
   </energy>
  </scstep>
  <scstep>
   <time name="diag">    0.10    0.16</time>
   <time name="diis">    0.41    0.49</time>
   <time name="orth">    0.12    0.15</time>
   <time name="total">    0.74    0.91</time>
   <energy>
    <i name="e_fr_energy">   -156.04553031 </i>
    <i name="e_wo_entrp">   -156.09977437 </i>
    <i name="e_0_energy">   -156.06361166 </i>
   </energy>
  </scstep>
  <scstep>
   <time name="diag">    0.19    0.26</time>
   <time name="diis">    0.25    0.35</time>
   <time name="orth">    0.05    0.11</time>
   <time name="total">    0.66    1.00</time>
   <energy>
    <i name="e_fr_energy">   -152.84454455 </i>
    <i name="e_wo_entrp">   -152.81425203 </i>
    <i name="e_0_energy">   -152.83444705 </i>
   </energy>
  </scstep>
  <scstep>
   <time name="diag">    0.29    0.43</time>
   <time name="diis">    0.26    0.38</time>
   <time name="orth">    0.01    0.01</time>
   <time name="total">    0.68    0.97</time>
   <energy>
    <i name="e_fr_energy">   -177.90358638 </i>
    <i name="e_wo_entrp">   -177.90138257 </i>
    <i name="e_0_energy">   -177.90285178 </i>
   </energy>
  </scstep>
  <scstep>
   <time name="diag">    0.32    0.53</time>
   <time name="diis">    0.21    0.34</time>
   <time name="orth">    0.03    0.03</time>
   <time name="total">    0.72    1.10</time>
   <energy>
    <i name="e_fr_energy">   -143.44523572 </i>
    <i name="e_wo_entrp">   -143.41182365 </i>
    <i name="e_0_energy">   -143.43409836 </i>
   </energy>
  </scstep>
  <scstep>
   <time name="diag">    0.16    0.20</time>
   <time name="diis">    0.21    0.38</time>
   <time name="orth">    0.05    0.07</time>
   <time name="total">    0.65    1.02</time>
   <energy>
    <i name="e_fr_energy">   -137.24430541 </i>
    <i name="e_wo_entrp">   -137.30687448 </i>
    <i name="e_0_energy">   -137.26516177 </i>
   </energy>
  </scstep>
  <scstep>
   <time name="diag">    0.06    0.08</time>
   <time name="diis">    0.27    0.32</time>
   <time name="orth">    0.02    0.02</time>
   <time name="total">    0.51    0.57</time>
   <energy>
    <i name="e_fr_energy">   -157.85882801 </i>
    <i name="e_wo_entrp">   -157.80775209 </i>
    <i name="e_0_energy">   -157.84180271 </i>
   </energy>
  </scstep>
  <scstep>
   <time name="diag">    0.14    0.15</time>
   <time name="diis">    0.33    0.37</time>
   <time name="orth">    0.02    0.02</time>
   <time name="total">    0.65    0.71</time>
   <energy>
    <i name="e_fr_energy">   -159.23087508 </i>
    <i name="e_wo_entrp">   -159.23535354 </i>
    <i name="e_0_energy">   -159.23236790 </i>
   </energy>
  </scstep>
  <scstep>
   <time name="diag">    0.09    0.09</time>
   <time name="diis">    0.30    0.36</time>
   <time name="orth">    0.01    0.01</time>
   <time name="total">    0.65    0.78</time>
   <energy>
    <i name="e_fr_energy">   -143.50404261 </i>
    <i name="e_wo_entrp">   -143.53249312 </i>
    <i name="e_0_energy">   -143.51352611 </i>
   </energy>
  </scstep>
  <scstep>
   <time name="diag">    0.22    0.33</time>
   <time name="diis">    0.23    0.36</time>
   <time name="orth">    0.04    0.04</time>
   <time name="total">    0.87    1.24</time>
   <energy>
    <i name="e_fr_energy">   -155.53908654 </i>
    <i name="e_wo_entrp">   -155.59057417 </i>
    <i name="e_0_energy">   -155.55624908 </i>
   </energy>
  </scstep>
  <scstep>
   <time name="diag">    0.05    0.11</time>
   <time name="diis">    0.22    0.34</time>
   <time name="orth">    0.06    0.06</time>
   <time name="total">    0.51    0.71</time>
   <energy>
    <i name="e_fr_energy">   -139.41725546 </i>
    <i name="e_wo_entrp">   -139.26677725 </i>
    <i name="e_0_energy">   -139.36709606 </i>
   </energy>
  </scstep>
  <scstep>
   <time name="diag">    0.07    0.08</time>
   <time name="diis">    0.23    0.42</time>
   <time name="orth">    0.01    0.01</time>
   <time name="total">    0.48    0.81</time>
   <energy>
    <i name="e_fr_energy">   -136.43317933 </i>
    <i name="e_wo_entrp">   -136.46417517 </i>
    <i name="e_0_energy">   -136.44351128 </i>
   </energy>
  </scstep>
  <scstep>
   <time name="diag">    0.13    0.13</time>
   <time name="diis">    0.36    0.37</time>
   <time name="orth">    0.02    0.02</time>
   <time name="total">    0.61    0.62</time>
   <energy>
    <i name="e_fr_energy">   -135.72099263 </i>
    <i name="e_wo_entrp">   -135.75852767 </i>
    <i name="e_0_energy">   -135.73350431 </i>
   </energy>
  </scstep>
  <scstep>
   <time name="diag">    0.04    0.08</time>
   <time name="diis">    0.21    0.29</time>
   <time name="orth">    0.02    0.02</time>
   <time name="total">    0.40    0.58</time>
   <energy>
    <i name="e_fr_energy">   -134.86707716 </i>
    <i name="e_wo_entrp">   -134.81132279 </i>
    <i name="e_0_energy">   -134.84849237 </i>
   </energy>
  </scstep>
  <scstep>
   <time name="diag">    0.06    0.07</time>
   <time name="diis">    0.26    0.31</time>
   <time name="orth">    0.02    0.02</time>
   <time name="total">    0.65    0.82</time>
   <energy>
    <i name="e_fr_energy">   -132.95357214 </i>
    <i name="e_wo_entrp">   -132.98980665 </i>
    <i name="e_0_energy">   -132.96565031 </i>
   </energy>
  </scstep>
  <scstep>
   <time name="diag">    0.18    0.25</time>
   <time name="diis">    0.26    0.33</time>
   <time name="orth">    0.08    0.17</time>
   <time name="total">    0.69    0.95</time>
   <energy>
    <i name="e_fr_energy">   -132.23271837 </i>
    <i name="e_wo_entrp">   -132.21079245 </i>
    <i name="e_0_energy">   -132.22540973 </i>
   </energy>
  </scstep>
  <scstep>
   <time name="diag">    0.05    0.07</time>
   <time name="diis">    0.32    0.39</time>
   <time name="orth">    0.07    0.09</time>
   <time name="total">    0.75    0.99</time>
   <energy>
    <i name="e_fr_energy">   -132.19493907 </i>
    <i name="e_wo_entrp">   -132.20880450 </i>
    <i name="e_0_energy">   -132.19956088 </i>
   </energy>
  </scstep>
  <scstep>
   <time name="diag">    0.08    0.11</time>
   <time name="diis">    0.24    0.35</time>
   <time name="orth">    0.02    0.02</time>
   <time name="total">    0.60    0.78</time>
   <energy>
    <i name="e_fr_energy">   -132.20997337 </i>
    <i name="e_wo_entrp">   -132.18590834 </i>
    <i name="e_0_energy">   -132.20195170 </i>
   </energy>
  </scstep>
  <scstep>
   <time name="diag">    0.06    0.07</time>
   <time name="diis">    0.32    0.46</time>
   <time name="orth">    0.06    0.13</time>
   <time name="total">    0.56    0.76</time>
   <energy>
    <i name="e_fr_energy">   -132.25753923 </i>
    <i name="e_wo_entrp">   -132.26253920 </i>
    <i name="e_0_energy">   -132.25920589 </i>
   </energy>
  </scstep>
  <scstep>
   <time name="diag">    0.09    0.17</time>
   <time name="diis">    0.28    0.41</time>
   <time name="orth">    0.09    0.17</time>
   <time name="total">    0.60    0.95</time>
   <energy>
    <i name="e_fr_energy">   -132.32551245 </i>
    <i name="e_wo_entrp">   -132.31885145 </i>
    <i name="e_0_energy">   -132.32329212 </i>
   </energy>
  </scstep>
  <scstep>
   <time name="diag">    0.07    0.11</time>
   <time name="diis">    0.28    0.47</time>
   <time name="orth">    0.07    0.11</time>
   <time name="total">    0.55    0.88</time>
   <energy>
    <i name="e_fr_energy">   -132.32087256 </i>
    <i name="e_wo_entrp">   -132.33750339 </i>
    <i name="e_0_energy">   -132.32641617 </i>
   </energy>
  </scstep>
  <scstep>
   <time name="diag">    0.12    0.20</time>
   <time name="diis">    0.34    0.42</time>
   <time name="orth">    0.01    0.02</time>
   <time name="total">    0.62    0.85</time>
   <energy>
    <i name="e_fr_energy">   -132.31073134 </i>
    <i name="e_wo_entrp">   -132.32191802 </i>
    <i name="e_0_energy">   -132.31446024 </i>
   </energy>
  </scstep>
  <scstep>
   <time name="diag">    0.11    0.15</time>
   <time name="diis">    0.29    0.38</time>
   <time name="orth">    0.18    0.30</time>
   <time name="total">    0.74    1.09</time>
   <energy>
    <i name="e_fr_energy">   -132.30824130 </i>
    <i name="e_wo_entrp">   -132.32255092 </i>
    <i name="e_0_energy">   -132.31301117 </i>
   </energy>
  </scstep>
  <scstep>
   <time name="diag">    0.08    0.09</time>
   <time name="diis">    0.32    0.40</time>
   <time name="orth">    0.01    0.01</time>
   <time name="total">    0.57    0.73</time>
   <energy>
    <i name="e_fr_energy">   -132.30951420 </i>
    <i name="e_wo_entrp">   -132.32539494 </i>
    <i name="e_0_energy">   -132.31480778 </i>
   </energy>
  </scstep>
  <scstep>
   <time name="diag">    0.06    0.06</time>
   <time name="diis">    0.36    0.40</time>
   <time name="orth">    0.11    0.11</time>
   <time name="total">    0.68    0.80</time>
   <energy>
    <i name="e_fr_energy">   -132.31159851 </i>
    <i name="e_wo_entrp">   -132.32698407 </i>
    <i name="e_0_energy">   -132.31672703 </i>
   </energy>
  </scstep>
  <scstep>
   <time name="diag">    0.09    0.15</time>
   <time name="diis">    0.20    0.32</time>
   <time name="orth">    0.01    0.01</time>
   <time name="total">    0.41    0.60</time>
   <energy>
    <i name="e_fr_energy">   -132.31243605 </i>
    <i name="e_wo_entrp">   -132.32870175 </i>
    <i name="e_0_energy">   -132.31785795 </i>
   </energy>
  </scstep>
  <scstep>
   <time name="diag">    0.09    0.14</time>
   <time name="diis">    0.19    0.31</time>
   <time name="orth">    0.01    0.01</time>
   <time name="total">    0.51    0.82</time>
   <energy>
    <i name="e_fr_energy">   -132.31260617 </i>
    <i name="e_wo_entrp">   -132.32842475 </i>
    <i name="e_0_energy">   -132.31787903 </i>
   </energy>
  </scstep>
  <scstep>
   <time name="diag">    0.09    0.16</time>
   <time name="diis">    0.24    0.37</time>
   <time name="orth">    0.06    0.08</time>
   <time name="total">    0.61    0.95</time>
   <energy>
    <i name="e_fr_energy">   -132.31231728 </i>
    <i name="e_wo_entrp">   -132.32859205 </i>
    <i name="e_0_energy">   -132.31774220 </i>
   </energy>
  </scstep>
  <scstep>
   <time name="diag">    0.07    0.07</time>
   <time name="diis">    0.27    0.30</time>
   <time name="orth">    0.06    0.11</time>
   <time name="total">    0.57    0.84</time>
   <energy>
    <i name="e_fr_energy">   -132.31198379 </i>
    <i name="e_wo_entrp">   -132.32765060 </i>
    <i name="e_0_energy">   -132.31720606 </i>
   </energy>
  </scstep>
  <scstep>
   <time name="diag">    0.12    0.15</time>
   <time name="diis">    0.21    0.34</time>
   <time name="orth">    0.03    0.05</time>
   <time name="total">    0.59    0.85</time>
   <energy>
    <i name="alphaZ">    631.51671108 </i>
    <i name="ewald"> -10598.60077807 </i>
    <i name="hartreedc">  -4476.51740601 </i>
    <i name="XCdc">    604.52236023 </i>
    <i name="pawpsdc">  14850.56804781 </i>
    <i name="pawaedc"> -14991.11429795 </i>
    <i name="eentropy">      0.01593251 </i>
    <i name="bandstr">  -1003.97700131 </i>
    <i name="atom">  14851.27451460 </i>
    <i name="e_fr_energy">   -132.31191711 </i>
    <i name="e_wo_entrp">   -132.32784962 </i>
    <i name="e_0_energy">   -132.31722795 </i>
   </energy>
  </scstep>
  <structure>
   <crystal>
    <varray name="basis" >
     <v>       5.73591900      -0.02312300      -0.79026700 </v>
     <v>       0.00000000       4.78544200       0.00000000 </v>
     <v>       0.00000000       0.00000000      10.92836100 </v>
    </varray>
    <i name="volume">    299.97157231 </i>
    <varray name="rec_basis" >
     <v>       0.17433998       0.00000000       0.00000000 </v>
     <v>       0.00084240       0.20896711       0.00000000 </v>
     <v>       0.01260712       0.00000000       0.09150503 </v>
    </varray>
   </crystal>
   <varray name="positions" >
    <v>       0.24699400       0.24850600       0.74623300 </v>
    <v>       0.24699400       0.75149400       0.24623300 </v>
    <v>       0.51485700       0.24497600       0.49879200 </v>
    <v>       0.51485700       0.75502400       0.99879200 </v>
    <v>       0.75373900       0.23127500       0.26486200 </v>
    <v>       0.75373900       0.76872500       0.76486200 </v>
    <v>       0.99045900       0.24137200       0.99652900 </v>
    <v>       0.99045900       0.75862800       0.49652900 </v>
    <v>       0.77857200       0.05847800       0.41725200 </v>
    <v>       0.77857200       0.94152200       0.91725200 </v>
    <v>       0.01370000       0.05755600       0.18278600 </v>
    <v>       0.01370000       0.94244400       0.68278600 </v>
    <v>       0.22224900       0.44944100       0.57080400 </v>
    <v>       0.22224900       0.55055900       0.07080400 </v>
    <v>       0.27923300       0.05174700       0.92203700 </v>
    <v>       0.27923300       0.94766700       0.42203700 </v>
    <v>       0.48187500       0.45353000       0.31584000 </v>
    <v>       0.48664300       0.54647000       0.81584000 </v>
    <v>       0.52253600       0.03560000       0.67416600 </v>
    <v>       0.52253600       0.96440000       0.17416600 </v>
    <v>       0.72235300       0.43595400       0.09109400 </v>
    <v>       0.72235300       0.55698000       0.58829000 </v>
    <v>       0.97343300       0.45650500       0.81898600 </v>
    <v>       0.97343300       0.54349500       0.31960400 </v>
   </varray>
  </structure>
  <varray name="forces" >
   <v>       0.21298736      -0.02623915      -0.28115747 </v>
   <v>       0.15438020       0.02546291      -0.24571117 </v>
   <v>       0.92860984      -0.73109796      -0.84128670 </v>
   <v>       0.93496775       0.71176155      -0.81936486 </v>
   <v>       0.13648104       0.21419500      -0.15989332 </v>
   <v>       0.20765472      -0.22762226      -0.23333411 </v>
   <v>      -0.90950184      -1.28709326      -0.68618813 </v>
   <v>      -0.92040463       1.21463665      -0.69484503 </v>
   <v>      -0.45295079      -0.14399525       1.30017857 </v>
   <v>      -0.44495929       0.15361175       1.36218822 </v>
   <v>       0.28859283      -0.40890775       0.04843318 </v>
   <v>       0.24770275       0.39836170       0.05043716 </v>
   <v>       0.04763077      -0.18104745       0.28652010 </v>
   <v>       0.05191084       0.18532423       0.26782689 </v>
   <v>      -0.24073928       0.28940005      -0.04612902 </v>
   <v>      -0.24270174      -0.25629786      -0.01662397 </v>
   <v>      -0.23029675      -0.10717594       0.56139453 </v>
   <v>      -0.38705345       0.07545864       0.62614241 </v>
   <v>      -0.30638197       0.66572542       0.16560709 </v>
   <v>      -0.32062958      -0.70502206       0.18519787 </v>
   <v>       0.20960053       0.19020103      -0.88360011 </v>
   <v>       0.22381478      -0.05416327      -0.81857686 </v>
   <v>       0.41115387      -0.38633665       0.44472050 </v>
   <v>       0.40013204       0.39085993       0.42806423 </v>
  </varray>
  <varray name="stress" >
   <v>    -245.50998208       1.23852968      20.97097413 </v>
   <v>       1.23853007    -261.90936229      -0.43042122 </v>
   <v>      20.97097340      -0.43041979    -295.24343264 </v>
  </varray>
  <energy>
   <i name="e_fr_energy">   -132.31191711 </i>
   <i name="e_wo_entrp">   -132.31722795 </i>
   <i name="e_0_energy">      0.01593251 </i>
  </energy>
  <time name="totalsc">   23.75   33.16</time>
  <eigenvalues>
   <array>
    <dimension dim="1">band</dimension>
    <dimension dim="2">kpoint</dimension>
    <dimension dim="3">spin</dimension>
    <field>eigene</field>
    <field>occ</field>
    <set>
     <set comment="spin 1">
      <set comment="kpoint 1">
       <r>  -22.6841    1.0000 </r>
       <r>  -22.6078    1.0000 </r>
       <r>  -22.3672    1.0000 </r>
       <r>  -22.3304    1.0000 </r>
       <r>  -22.3023    1.0000 </r>
       <r>  -22.2743    1.0000 </r>
       <r>  -22.2282    1.0000 </r>
       <r>  -22.1889    1.0000 </r>
       <r>  -22.1487    1.0000 </r>
       <r>  -22.1283    1.0000 </r>
       <r>  -21.9728    1.0000 </r>
       <r>  -21.9540    1.0000 </r>
       <r>  -21.8729    1.0000 </r>
       <r>  -21.8423    1.0000 </r>
       <r>  -16.7464    1.0000 </r>
       <r>  -16.7118    1.0000 </r>
       <r>   -6.1174    1.0000 </r>
       <r>   -5.7804    1.0000 </r>
       <r>   -5.3530    1.0000 </r>
       <r>   -5.2293    1.0000 </r>
       <r>   -5.1738    1.0000 </r>
       <r>   -5.0437    1.0000 </r>
       <r>   -4.9998    1.0000 </r>
       <r>   -4.9266    1.0000 </r>
       <r>   -4.8770    1.0000 </r>
       <r>   -4.8200    1.0000 </r>
       <r>   -4.7167    1.0000 </r>
       <r>   -4.5770    1.0000 </r>
       <r>   -4.5684    1.0000 </r>
       <r>   -4.5509    1.0000 </r>
       <r>   -4.4135    1.0000 </r>
       <r>   -4.3954    1.0000 </r>
       <r>   -4.3588    1.0000 </r>
       <r>   -4.2974    1.0000 </r>
       <r>   -4.2800    1.0000 </r>
       <r>   -4.2317    1.0000 </r>
       <r>   -4.2088    1.0000 </r>
       <r>   -4.1814    1.0000 </r>
       <r>   -4.0352    1.0000 </r>
       <r>   -4.0287    1.0000 </r>
       <r>   -4.0070    1.0000 </r>
       <r>   -3.9518    1.0000 </r>
       <r>   -3.9272    1.0000 </r>
       <r>   -3.8821    1.0000 </r>
       <r>   -3.7429    1.0000 </r>
       <r>   -3.6420    1.0000 </r>
       <r>   -3.4510    1.0000 </r>
       <r>   -3.4158    1.0000 </r>
       <r>   -3.3360    1.0000 </r>
       <r>   -3.2542    1.0000 </r>
       <r>   -3.0863    1.0000 </r>
       <r>   -3.0457    1.0000 </r>
       <r>   -2.9872    1.0000 </r>
       <r>   -2.9684    1.0000 </r>
       <r>   -2.8171    1.0000 </r>
       <r>   -2.7652    1.0000 </r>
       <r>   -2.7258    1.0000 </r>
       <r>   -2.6824    1.0000 </r>
       <r>   -2.4990    1.0000 </r>
       <r>   -2.4542    1.0000 </r>
       <r>   -2.3777    1.0000 </r>
       <r>   -2.3042    1.0000 </r>
       <r>   -1.5868    1.0000 </r>
       <r>   -1.5562    1.0000 </r>
       <r>    0.8822    1.0000 </r>
       <r>    0.8923    1.0000 </r>
       <r>    0.9636    1.0000 </r>
       <r>    0.9730    1.0001 </r>
       <r>    1.0116    1.0002 </r>
       <r>    1.0155    1.0002 </r>
       <r>    1.0309    1.0003 </r>
       <r>    1.0661    1.0007 </r>
       <r>    1.1295    1.0028 </r>
       <r>    1.1502    1.0041 </r>
       <r>    1.2032    1.0101 </r>
       <r>    1.2259    1.0140 </r>
       <r>    1.2615    1.0215 </r>
       <r>    1.2785    1.0254 </r>
       <r>    1.3080    1.0317 </r>
       <r>    1.3593    1.0344 </r>
       <r>    1.3873    1.0257 </r>
       <r>    1.3967    1.0202 </r>
       <r>    1.4367    0.9786 </r>
       <r>    1.4721    0.9116 </r>
       <r>    1.5006    0.8347 </r>
       <r>    1.5203    0.7706 </r>
       <r>    1.5396    0.7000 </r>
       <r>    1.6181    0.3761 </r>
       <r>    1.6267    0.3414 </r>
       <r>    1.7655   -0.0088 </r>
       <r>    1.8400   -0.0353 </r>
       <r>    1.8847   -0.0285 </r>
       <r>    1.9235   -0.0196 </r>
       <r>    1.9879   -0.0081 </r>
       <r>    2.0631   -0.0020 </r>
       <r>    2.0637   -0.0020 </r>
       <r>    2.3077   -0.0000 </r>
       <r>    2.3851   -0.0000 </r>
       <r>    2.7348   -0.0000 </r>
       <r>    2.8226   -0.0000 </r>
       <r>    2.8797   -0.0000 </r>
       <r>    2.9062   -0.0000 </r>
       <r>    2.9994   -0.0000 </r>
       <r>    4.1562   -0.0000 </r>
      </set>
     </set>
    </set>
   </array>
  </eigenvalues>
  <separator name="orbital magnetization" >
   <v name="MAGDIPOLOUT">      0.00000000      0.00000000      0.00000000</v>
  </separator>
  <dos>
   <i name="efermi">      1.58841416 </i>
   <total>
    <array>
     <dimension dim="1">gridpoints</dimension>
     <dimension dim="2">spin</dimension>
     <field>energy</field>
     <field>total</field>
     <field>integrated</field>
     <set>
      <set comment="spin 1">
       <r>   -24.6841     0.0000     0.0000 </r>
       <r>   -24.5813     0.0000     0.0000 </r>
       <r>   -24.4785     0.0000     0.0000 </r>
       <r>   -24.3757    -0.0000    -0.0000 </r>
       <r>   -24.2729    -0.0000    -0.0000 </r>
       <r>   -24.1701    -0.0000    -0.0000 </r>
       <r>   -24.0673    -0.0000    -0.0000 </r>
       <r>   -23.9645    -0.0000    -0.0000 </r>
       <r>   -23.8617    -0.0000    -0.0000 </r>
       <r>   -23.7589    -0.0000    -0.0000 </r>
       <r>   -23.6561    -0.0000    -0.0000 </r>
       <r>   -23.5533    -0.0000    -0.0000 </r>
       <r>   -23.4505    -0.0000    -0.0000 </r>
       <r>   -23.3477    -0.0003    -0.0000 </r>
       <r>   -23.2449    -0.0055    -0.0006 </r>
       <r>   -23.1421    -0.0590    -0.0067 </r>
       <r>   -23.0393    -0.3252    -0.0401 </r>
       <r>   -22.9365    -0.7127    -0.1134 </r>
       <r>   -22.8337     0.8351    -0.0275 </r>
       <r>   -22.7309     7.0760     0.6999 </r>
       <r>   -22.6281    13.1648     2.0533 </r>
       <r>   -22.5253    12.3326     3.3211 </r>
       <r>   -22.4225    15.5524     4.9199 </r>
       <r>   -22.3197    33.3991     8.3534 </r>
       <r>   -22.2169    48.6200    13.3516 </r>
       <r>   -22.1141    44.4206    17.9180 </r>
       <r>   -22.0113    33.1468    21.3256 </r>
       <r>   -21.9085    29.6289    24.3715 </r>
       <r>   -21.8057    24.6423    26.9047 </r>
       <r>   -21.7029    11.4478    28.0816 </r>
       <r>   -21.6001     1.1001    28.1947 </r>
       <r>   -21.4973    -1.2323    28.0680 </r>
       <r>   -21.3945    -0.5500    28.0114 </r>
       <r>   -21.2917    -0.1011    28.0011 </r>
       <r>   -21.1889    -0.0097    28.0001 </r>
       <r>   -21.0861    -0.0005    28.0000 </r>
       <r>   -20.9833    -0.0000    28.0000 </r>
       <r>   -20.8805    -0.0000    28.0000 </r>
       <r>   -20.7777    -0.0000    28.0000 </r>
       <r>   -20.6749    -0.0000    28.0000 </r>
       <r>   -20.5721    -0.0000    28.0000 </r>
       <r>   -20.4693     0.0000    28.0000 </r>
       <r>   -20.3665     0.0000    28.0000 </r>
       <r>   -20.2637     0.0000    28.0000 </r>
       <r>   -20.1609     0.0000    28.0000 </r>
       <r>   -20.0581     0.0000    28.0000 </r>
       <r>   -19.9553     0.0000    28.0000 </r>
       <r>   -19.8525     0.0000    28.0000 </r>
       <r>   -19.7497     0.0000    28.0000 </r>
       <r>   -19.6469     0.0000    28.0000 </r>
       <r>   -19.5441     0.0000    28.0000 </r>
       <r>   -19.4413     0.0000    28.0000 </r>
       <r>   -19.3385     0.0000    28.0000 </r>
       <r>   -19.2357     0.0000    28.0000 </r>
       <r>   -19.1329     0.0000    28.0000 </r>
       <r>   -19.0301     0.0000    28.0000 </r>
       <r>   -18.9273     0.0000    28.0000 </r>
       <r>   -18.8245     0.0000    28.0000 </r>
       <r>   -18.7217     0.0000    28.0000 </r>
       <r>   -18.6189     0.0000    28.0000 </r>
       <r>   -18.5161     0.0000    28.0000 </r>
       <r>   -18.4133    -0.0000    28.0000 </r>
       <r>   -18.3105    -0.0000    28.0000 </r>
       <r>   -18.2077    -0.0000    28.0000 </r>
       <r>   -18.1049    -0.0000    28.0000 </r>
       <r>   -18.0021    -0.0000    28.0000 </r>
       <r>   -17.8993    -0.0000    28.0000 </r>
       <r>   -17.7965    -0.0000    28.0000 </r>
       <r>   -17.6936    -0.0000    28.0000 </r>
       <r>   -17.5908    -0.0000    28.0000 </r>
       <r>   -17.4880    -0.0000    28.0000 </r>
       <r>   -17.3852    -0.0008    27.9999 </r>
       <r>   -17.2824    -0.0129    27.9986 </r>
       <r>   -17.1796    -0.1187    27.9864 </r>
       <r>   -17.0768    -0.5319    27.9317 </r>
       <r>   -16.9740    -0.6701    27.8628 </r>
       <r>   -16.8712     2.8921    28.1601 </r>
       <r>   -16.7684    11.6314    29.3558 </r>
       <r>   -16.6656    16.0392    31.0047 </r>
       <r>   -16.5628     9.4651    31.9777 </r>
       <r>   -16.4600     1.4976    32.1317 </r>
       <r>   -16.3572    -0.7947    32.0500 </r>
       <r>   -16.2544    -0.4039    32.0085 </r>
       <r>   -16.1516    -0.0749    32.0008 </r>
       <r>   -16.0488    -0.0070    32.0000 </r>
       <r>   -15.9460    -0.0004    32.0000 </r>
       <r>   -15.8432    -0.0000    32.0000 </r>
       <r>   -15.7404    -0.0000    32.0000 </r>
       <r>   -15.6376    -0.0000    32.0000 </r>
       <r>   -15.5348    -0.0000    32.0000 </r>
       <r>   -15.4320    -0.0000    32.0000 </r>
       <r>   -15.3292     0.0000    32.0000 </r>
       <r>   -15.2264     0.0000    32.0000 </r>
       <r>   -15.1236     0.0000    32.0000 </r>
       <r>   -15.0208     0.0000    32.0000 </r>
       <r>   -14.9180     0.0000    32.0000 </r>
       <r>   -14.8152     0.0000    32.0000 </r>
       <r>   -14.7124     0.0000    32.0000 </r>
       <r>   -14.6096     0.0000    32.0000 </r>
       <r>   -14.5068     0.0000    32.0000 </r>
       <r>   -14.4040     0.0000    32.0000 </r>
       <r>   -14.3012     0.0000    32.0000 </r>
       <r>   -14.1984     0.0000    32.0000 </r>
       <r>   -14.0956     0.0000    32.0000 </r>
       <r>   -13.9928     0.0000    32.0000 </r>
       <r>   -13.8900     0.0000    32.0000 </r>
       <r>   -13.7872     0.0000    32.0000 </r>
       <r>   -13.6844     0.0000    32.0000 </r>
       <r>   -13.5816     0.0000    32.0000 </r>
       <r>   -13.4788     0.0000    32.0000 </r>
       <r>   -13.3760     0.0000    32.0000 </r>
       <r>   -13.2732     0.0000    32.0000 </r>
       <r>   -13.1704     0.0000    32.0000 </r>
       <r>   -13.0676     0.0000    32.0000 </r>
       <r>   -12.9648     0.0000    32.0000 </r>
       <r>   -12.8620     0.0000    32.0000 </r>
       <r>   -12.7592     0.0000    32.0000 </r>
       <r>   -12.6564     0.0000    32.0000 </r>
       <r>   -12.5536     0.0000    32.0000 </r>
       <r>   -12.4508     0.0000    32.0000 </r>
       <r>   -12.3480     0.0000    32.0000 </r>
       <r>   -12.2452     0.0000    32.0000 </r>
       <r>   -12.1424     0.0000    32.0000 </r>
       <r>   -12.0396     0.0000    32.0000 </r>
       <r>   -11.9368     0.0000    32.0000 </r>
       <r>   -11.8340     0.0000    32.0000 </r>
       <r>   -11.7312     0.0000    32.0000 </r>
       <r>   -11.6284     0.0000    32.0000 </r>
       <r>   -11.5256     0.0000    32.0000 </r>
       <r>   -11.4228     0.0000    32.0000 </r>
       <r>   -11.3200     0.0000    32.0000 </r>
       <r>   -11.2172     0.0000    32.0000 </r>
       <r>   -11.1144     0.0000    32.0000 </r>
       <r>   -11.0116     0.0000    32.0000 </r>
       <r>   -10.9088     0.0000    32.0000 </r>
       <r>   -10.8060     0.0000    32.0000 </r>
       <r>   -10.7032     0.0000    32.0000 </r>
       <r>   -10.6004     0.0000    32.0000 </r>
       <r>   -10.4976     0.0000    32.0000 </r>
       <r>   -10.3948     0.0000    32.0000 </r>
       <r>   -10.2920     0.0000    32.0000 </r>
       <r>   -10.1892     0.0000    32.0000 </r>
       <r>   -10.0864     0.0000    32.0000 </r>
       <r>    -9.9836     0.0000    32.0000 </r>
       <r>    -9.8808     0.0000    32.0000 </r>
       <r>    -9.7780     0.0000    32.0000 </r>
       <r>    -9.6752     0.0000    32.0000 </r>
       <r>    -9.5724     0.0000    32.0000 </r>
       <r>    -9.4696     0.0000    32.0000 </r>
       <r>    -9.3668     0.0000    32.0000 </r>
       <r>    -9.2640     0.0000    32.0000 </r>
       <r>    -9.1612     0.0000    32.0000 </r>
       <r>    -9.0583     0.0000    32.0000 </r>
       <r>    -8.9555     0.0000    32.0000 </r>
       <r>    -8.8527     0.0000    32.0000 </r>
       <r>    -8.7499     0.0000    32.0000 </r>
       <r>    -8.6471     0.0000    32.0000 </r>
       <r>    -8.5443     0.0000    32.0000 </r>
       <r>    -8.4415     0.0000    32.0000 </r>
       <r>    -8.3387     0.0000    32.0000 </r>
       <r>    -8.2359     0.0000    32.0000 </r>
       <r>    -8.1331     0.0000    32.0000 </r>
       <r>    -8.0303     0.0000    32.0000 </r>
       <r>    -7.9275     0.0000    32.0000 </r>
       <r>    -7.8247     0.0000    32.0000 </r>
       <r>    -7.7219    -0.0000    32.0000 </r>
       <r>    -7.6191    -0.0000    32.0000 </r>
       <r>    -7.5163    -0.0000    32.0000 </r>
       <r>    -7.4135    -0.0000    32.0000 </r>
       <r>    -7.3107    -0.0000    32.0000 </r>
       <r>    -7.2079    -0.0000    32.0000 </r>
       <r>    -7.1051    -0.0000    32.0000 </r>
       <r>    -7.0023    -0.0000    32.0000 </r>
       <r>    -6.8995    -0.0000    32.0000 </r>
       <r>    -6.7967    -0.0002    32.0000 </r>
       <r>    -6.6939    -0.0033    31.9996 </r>
       <r>    -6.5911    -0.0362    31.9959 </r>
       <r>    -6.4883    -0.2020    31.9752 </r>
       <r>    -6.3855    -0.4155    31.9324 </r>
       <r>    -6.2827     0.7023    32.0046 </r>
       <r>    -6.1799     4.6451    32.4822 </r>
       <r>    -6.0771     7.7256    33.2764 </r>
       <r>    -5.9743     5.9370    33.8867 </r>
       <r>    -5.8715     4.7958    34.3797 </r>
       <r>    -5.7687     7.1862    35.1184 </r>
       <r>    -5.6659     6.2410    35.7600 </r>
       <r>    -5.5631     1.7935    35.9444 </r>
       <r>    -5.4603     1.6859    36.1177 </r>
       <r>    -5.3575     8.3434    36.9754 </r>
       <r>    -5.2547    16.6512    38.6872 </r>
       <r>    -5.1519    21.6622    40.9141 </r>
       <r>    -5.0491    25.2507    43.5099 </r>
       <r>    -4.9463    29.9413    46.5879 </r>
       <r>    -4.8435    30.5096    49.7243 </r>
       <r>    -4.7407    25.4297    52.3385 </r>
       <r>    -4.6379    24.0410    54.8100 </r>
       <r>    -4.5351    29.5584    57.8486 </r>
       <r>    -4.4323    36.7572    61.6273 </r>
       <r>    -4.3295    45.0122    66.2546 </r>
       <r>    -4.2267    48.4959    71.2401 </r>
       <r>    -4.1239    43.7183    75.7343 </r>
       <r>    -4.0211    42.4503    80.0983 </r>
       <r>    -3.9183    42.8620    84.5045 </r>
       <r>    -3.8155    32.4584    87.8413 </r>
       <r>    -3.7127    19.3907    89.8347 </r>
       <r>    -3.6099    13.6001    91.2328 </r>
       <r>    -3.5071    15.0410    92.7790 </r>
       <r>    -3.4043    21.6402    95.0037 </r>
       <r>    -3.3015    24.1142    97.4826 </r>
       <r>    -3.1987    20.3248    99.5721 </r>
       <r>    -3.0959    21.9703   101.8306 </r>
       <r>    -2.9931    28.7729   104.7885 </r>
       <r>    -2.8903    29.9322   107.8656 </r>
       <r>    -2.7875    29.3767   110.8855 </r>
       <r>    -2.6847    28.5734   113.8229 </r>
       <r>    -2.5819    22.9832   116.1856 </r>
       <r>    -2.4791    21.8002   118.4267 </r>
       <r>    -2.3763    25.1836   121.0156 </r>
       <r>    -2.2735    20.6138   123.1347 </r>
       <r>    -2.1707     8.9971   124.0596 </r>
       <r>    -2.0679     0.8327   124.1452 </r>
       <r>    -1.9651    -1.2348   124.0183 </r>
       <r>    -1.8623    -1.2294   123.8919 </r>
       <r>    -1.7595     0.4518   123.9384 </r>
       <r>    -1.6567     7.4476   124.7040 </r>
       <r>    -1.5539    15.4682   126.2941 </r>
       <r>    -1.4511    13.4039   127.6721 </r>
       <r>    -1.3483     4.4363   128.1281 </r>
       <r>    -1.2455    -0.4005   128.0869 </r>
       <r>    -1.1427    -0.6499   128.0201 </r>
       <r>    -1.0399    -0.1729   128.0024 </r>
       <r>    -0.9371    -0.0215   128.0002 </r>
       <r>    -0.8343    -0.0014   128.0000 </r>
       <r>    -0.7315    -0.0001   128.0000 </r>
       <r>    -0.6287    -0.0000   128.0000 </r>
       <r>    -0.5259    -0.0000   128.0000 </r>
       <r>    -0.4231    -0.0000   128.0000 </r>
       <r>    -0.3202    -0.0000   128.0000 </r>
       <r>    -0.2174    -0.0000   128.0000 </r>
       <r>    -0.1146    -0.0000   128.0000 </r>
       <r>    -0.0118    -0.0000   128.0000 </r>
       <r>     0.0910    -0.0000   128.0000 </r>
       <r>     0.1938    -0.0002   128.0000 </r>
       <r>     0.2966    -0.0051   127.9995 </r>
       <r>     0.3994    -0.0658   127.9927 </r>
       <r>     0.5022    -0.4684   127.9445 </r>
       <r>     0.6050    -1.6623   127.7737 </r>
       <r>     0.7078    -1.5412   127.6152 </r>
       <r>     0.8106     8.4556   128.4845 </r>
       <r>     0.9134    33.5902   131.9376 </r>
       <r>     1.0162    58.4556   137.9469 </r>
       <r>     1.1190    65.0529   144.6344 </r>
       <r>     1.2218    62.1813   151.0267 </r>
       <r>     1.3246    64.0473   157.6108 </r>
       <r>     1.4274    67.5660   164.5567 </r>
       <r>     1.5302    63.0247   171.0357 </r>
       <r>     1.6330    46.4965   175.8156 </r>
       <r>     1.7358    29.8666   178.8859 </r>
       <r>     1.8386    28.0567   181.7702 </r>
       <r>     1.9414    35.2594   185.3949 </r>
       <r>     2.0442    35.0147   188.9945 </r>
       <r>     2.1470    23.6320   191.4239 </r>
       <r>     2.2498    13.8455   192.8472 </r>
       <r>     2.3526    13.4862   194.2336 </r>
       <r>     2.4554    11.6930   195.4357 </r>
       <r>     2.5582     4.6562   195.9143 </r>
       <r>     2.6610     4.3307   196.3595 </r>
       <r>     2.7638    15.7277   197.9764 </r>
       <r>     2.8666    28.6704   200.9237 </r>
       <r>     2.9694    29.4302   203.9492 </r>
       <r>     3.0722    17.2101   205.7184 </r>
       <r>     3.1750     4.4825   206.1792 </r>
       <r>     3.2778    -0.6536   206.1120 </r>
       <r>     3.3806    -0.8139   206.0283 </r>
       <r>     3.4834    -0.2384   206.0038 </r>
       <r>     3.5862    -0.0383   205.9999 </r>
       <r>     3.6890    -0.0440   205.9953 </r>
       <r>     3.7918    -0.2192   205.9728 </r>
       <r>     3.8946    -0.4068   205.9310 </r>
       <r>     3.9974     0.8944   206.0229 </r>
       <r>     4.1002     5.0869   206.5459 </r>
       <r>     4.2030     8.1539   207.3841 </r>
       <r>     4.3058     5.5142   207.9510 </r>
       <r>     4.4086     1.1627   208.0705 </r>
       <r>     4.5114    -0.3868   208.0307 </r>
       <r>     4.6142    -0.2444   208.0056 </r>
       <r>     4.7170    -0.0495   208.0005 </r>
       <r>     4.8198    -0.0049   208.0000 </r>
       <r>     4.9226    -0.0003   208.0000 </r>
       <r>     5.0254    -0.0000   208.0000 </r>
       <r>     5.1282    -0.0000   208.0000 </r>
       <r>     5.2310    -0.0000   208.0000 </r>
       <r>     5.3338    -0.0000   208.0000 </r>
       <r>     5.4366    -0.0000   208.0000 </r>
       <r>     5.5394     0.0000   208.0000 </r>
       <r>     5.6422     0.0000   208.0000 </r>
       <r>     5.7450     0.0000   208.0000 </r>
       <r>     5.8478     0.0000   208.0000 </r>
       <r>     5.9506     0.0000   208.0000 </r>
       <r>     6.0534     0.0000   208.0000 </r>
       <r>     6.1562     0.0000   208.0000 </r>
      </set>
     </set>
    </array>
   </total>
  </dos>
 </calculation>
 <structure name="finalpos" >
  <crystal>
   <varray name="basis" >
    <v>       5.73591900      -0.02312300      -0.79026700 </v>
    <v>       0.00000000       4.78544200       0.00000000 </v>
    <v>       0.00000000       0.00000000      10.92836100 </v>
   </varray>
   <i name="volume">    299.97157231 </i>
   <varray name="rec_basis" >
    <v>       0.17433998       0.00000000       0.00000000 </v>
    <v>       0.00084240       0.20896711       0.00000000 </v>
    <v>       0.01260712       0.00000000       0.09150503 </v>
   </varray>
  </crystal>
  <varray name="positions" >
   <v>       0.24699400       0.24850600       0.74623300 </v>
   <v>       0.24699400       0.75149400       0.24623300 </v>
   <v>       0.51485700       0.24497600       0.49879200 </v>
   <v>       0.51485700       0.75502400       0.99879200 </v>
   <v>       0.75373900       0.23127500       0.26486200 </v>
   <v>       0.75373900       0.76872500       0.76486200 </v>
   <v>       0.99045900       0.24137200       0.99652900 </v>
   <v>       0.99045900       0.75862800       0.49652900 </v>
   <v>       0.77857200       0.05847800       0.41725200 </v>
   <v>       0.77857200       0.94152200       0.91725200 </v>
   <v>       0.01370000       0.05755600       0.18278600 </v>
   <v>       0.01370000       0.94244400       0.68278600 </v>
   <v>       0.22224900       0.44944100       0.57080400 </v>
   <v>       0.22224900       0.55055900       0.07080400 </v>
   <v>       0.27923300       0.05174700       0.92203700 </v>
   <v>       0.27923300       0.94766700       0.42203700 </v>
   <v>       0.48187500       0.45353000       0.31584000 </v>
   <v>       0.48664300       0.54647000       0.81584000 </v>
   <v>       0.52253600       0.03560000       0.67416600 </v>
   <v>       0.52253600       0.96440000       0.17416600 </v>
   <v>       0.72235300       0.43595400       0.09109400 </v>
   <v>       0.72235300       0.55698000       0.58829000 </v>
   <v>       0.97343300       0.45650500       0.81898600 </v>
   <v>       0.97343300       0.54349500       0.31960400 </v>
  </varray>
 </structure>
</modeling>
