<?xml version="1.0" encoding="ISO-8859-1"?>
<modeling>
 <generator>
  <i name="program" type="string">vasp </i>
  <i name="version" type="string">5.3.5  </i>
  <i name="subversion" type="string">31Mar14 (build Aug 29 2014 19:41:47) complex                          parallel </i>
  <i name="platform" type="string">LinuxIFC </i>
  <i name="date" type="string">2019 04 11 </i>
  <i name="time" type="string">13:34:03 </i>
 </generator>
 <incar>
  <i type="string" name="SYSTEM"> Fe4OF8_var_7</i>
  <i type="int" name="ISTART">     0</i>
  <i type="string" name="PREC">normal</i>
  <i type="string" name="ALGO"> VeryFast</i>
  <i type="int" name="ISPIN">     1</i>
  <i type="int" name="ICHARG">     2</i>
  <i type="int" name="NELM">   300</i>
  <i type="int" name="ISYM">     0</i>
  <i type="logical" name="LWAVE"> F  </i>
  <i type="int" name="NELM">   300</i>
 </incar>
 <kpoints>
  <generation param="Gamma">
   <v type="int" name="divisions">       1        1        1 </v>
   <v name="usershift">      0.00000000       0.00000000       0.00000000 </v>
   <v name="genvec1">      1.00000000       0.00000000       0.00000000 </v>
   <v name="genvec2">      0.00000000       1.00000000       0.00000000 </v>
   <v name="genvec3">     -0.00000000       0.00000000       1.00000000 </v>
   <v name="shift">      0.00000000       0.00000000       0.00000000 </v>
  </generation>
  <varray name="kpointlist" >
   <v>       0.00000000       0.00000000       0.00000000 </v>
  </varray>
  <varray name="weights" >
   <v>       1.00000000 </v>
  </varray>
 </kpoints>
 <parameters>
  <separator name="general" >
   <i type="string" name="SYSTEM">Fe4OF8_var_7</i>
   <i type="logical" name="LCOMPAT"> F  </i>
  </separator>
  <separator name="electronic" >
   <i type="string" name="PREC">normal</i>
   <i name="ENMAX">    400.00000000</i>
   <i name="ENAUG">    613.61400000</i>
   <i name="EDIFF">      0.00010000</i>
   <i type="int" name="IALGO">    48</i>
   <i type="int" name="IWAVPR">    10</i>
   <i type="int" name="NBANDS">   228</i>
   <i name="NELECT">    376.00000000</i>
   <i type="int" name="TURBO">     0</i>
   <i type="int" name="IRESTART">     0</i>
   <i type="int" name="NREBOOT">     0</i>
   <i type="int" name="NMIN">     0</i>
   <i name="EREF">      0.00000000</i>
   <separator name="electronic smearing" >
    <i type="int" name="ISMEAR">     1</i>
    <i name="SIGMA">      0.20000000</i>
    <i name="KSPACING">      0.50000000</i>
    <i type="logical" name="KGAMMA"> T  </i>
   </separator>
   <separator name="electronic projectors" >
    <i type="logical" name="LREAL"> F  </i>
    <v name="ROPT">      0.00000000      0.00000000      0.00000000</v>
    <i type="int" name="LMAXPAW">  -100</i>
    <i type="int" name="LMAXMIX">     2</i>
    <i type="logical" name="NLSPLINE"> F  </i>
   </separator>
   <separator name="electronic startup" >
    <i type="int" name="ISTART">     0</i>
    <i type="int" name="ICHARG">     2</i>
    <i type="int" name="INIWAV">     1</i>
   </separator>
   <separator name="electronic spin" >
    <i type="int" name="ISPIN">     1</i>
    <i type="logical" name="LNONCOLLINEAR"> F  </i>
    <v name="MAGMOM">      1.00000000      1.00000000      1.00000000      1.00000000      1.00000000      1.00000000      1.00000000      1.00000000      1.00000000      1.00000000      1.00000000      1.00000000      1.00000000      1.00000000      1.00000000      1.00000000      1.00000000      1.00000000      1.00000000      1.00000000
      1.00000000      1.00000000      1.00000000      1.00000000      1.00000000      1.00000000      1.00000000      1.00000000      1.00000000      1.00000000      1.00000000      1.00000000      1.00000000      1.00000000      1.00000000      1.00000000      1.00000000      1.00000000      1.00000000      1.00000000
      1.00000000      1.00000000      1.00000000      1.00000000      1.00000000      1.00000000      1.00000000      1.00000000      1.00000000      1.00000000      1.00000000      1.00000000</v>
    <i name="NUPDOWN">     -1.00000000</i>
    <i type="logical" name="LSORBIT"> F  </i>
    <v name="SAXIS">      0.00000000      0.00000000      1.00000000</v>
    <i type="logical" name="LSPIRAL"> F  </i>
    <v name="QSPIRAL">      0.00000000      0.00000000      0.00000000</v>
    <i type="logical" name="LZEROZ"> F  </i>
   </separator>
   <separator name="electronic exchange-correlation" >
    <i type="logical" name="LASPH"> F  </i>
    <i type="logical" name="LMETAGGA"> F  </i>
   </separator>
   <separator name="electronic convergence" >
    <i type="int" name="NELM">   300</i>
    <i type="int" name="NELMDL">   -12</i>
    <i type="int" name="NELMIN">     2</i>
    <i name="ENINI">    400.00000000</i>
    <separator name="electronic convergence detail" >
     <i type="logical" name="LDIAG"> T  </i>
     <i type="logical" name="LSUBROT"> F  </i>
     <i name="WEIMIN">      0.00000000</i>
     <i name="EBREAK">      0.00000011</i>
     <i name="DEPER">      0.30000000</i>
     <i type="int" name="NRMM">     4</i>
     <i name="TIME">      0.40000000</i>
    </separator>
   </separator>
   <separator name="electronic mixer" >
    <i name="AMIX">      0.40000000</i>
    <i name="BMIX">      1.00000000</i>
    <i name="AMIN">      0.10000000</i>
    <i name="AMIX_MAG">      1.60000000</i>
    <i name="BMIX_MAG">      1.00000000</i>
    <separator name="electronic mixer details" >
     <i type="int" name="IMIX">     4</i>
     <i type="int" name="MAXMIX">   -45</i>
     <i name="WC">    100.00000000</i>
     <i type="int" name="INIMIX">     1</i>
     <i type="int" name="MIXPRE">     1</i>
     <i type="int" name="MREMOVE">     5</i>
    </separator>
   </separator>
   <separator name="electronic dipolcorrection" >
    <i type="logical" name="LDIPOL"> F  </i>
    <i type="logical" name="LMONO"> F  </i>
    <i type="int" name="IDIPOL">     0</i>
    <i name="EPSILON">      1.00000000</i>
    <v name="DIPOL">   -100.00000000   -100.00000000   -100.00000000</v>
    <i name="EFIELD">      0.00000000</i>
   </separator>
  </separator>
  <separator name="grids" >
   <i type="int" name="NGX">    48</i>
   <i type="int" name="NGY">    28</i>
   <i type="int" name="NGZ">    80</i>
   <i type="int" name="NGXF">    96</i>
   <i type="int" name="NGYF">    56</i>
   <i type="int" name="NGZF">   160</i>
   <i type="logical" name="ADDGRID"> F  </i>
  </separator>
  <separator name="ionic" >
   <i type="int" name="NSW">     0</i>
   <i type="int" name="IBRION">    -1</i>
   <i type="int" name="ISIF">     2</i>
   <i name="PSTRESS">      0.00000000</i>
   <i name="EDIFFG">      0.00100000</i>
   <i type="int" name="NFREE">     0</i>
   <i name="POTIM">      0.50000000</i>
   <i name="SMASS">     -3.00000000</i>
   <i name="SCALEE">      1.00000000</i>
  </separator>
  <separator name="ionic md" >
   <i name="TEBEG">      0.00010000</i>
   <i name="TEEND">      0.00010000</i>
   <i type="int" name="NBLOCK">     1</i>
   <i type="int" name="KBLOCK">     1</i>
   <i type="int" name="NPACO">   256</i>
   <i name="APACO">     16.00000000</i>
  </separator>
  <separator name="symmetry" >
   <i type="int" name="ISYM">     0</i>
   <i name="SYMPREC">      0.00001000</i>
  </separator>
  <separator name="dos" >
   <i type="logical" name="LORBIT"> F  </i>
   <v name="RWIGS">     -1.00000000     -1.00000000     -1.00000000</v>
   <i type="int" name="NEDOS">   301</i>
   <i name="EMIN">     10.00000000</i>
   <i name="EMAX">    -10.00000000</i>
   <i name="EFERMI">      0.00000000</i>
  </separator>
  <separator name="writing" >
   <i type="int" name="NWRITE">     2</i>
   <i type="logical" name="LWAVE"> F  </i>
   <i type="logical" name="LCHARG"> T  </i>
   <i type="logical" name="LPARD"> F  </i>
   <i type="logical" name="LVTOT"> F  </i>
   <i type="logical" name="LVHAR"> F  </i>
   <i type="logical" name="LELF"> F  </i>
   <i type="logical" name="LOPTICS"> F  </i>
   <v name="STM">      0.00000000      0.00000000      0.00000000      0.00000000      0.00000000      0.00000000      0.00000000</v>
  </separator>
  <separator name="performance" >
   <i type="int" name="NPAR">     4</i>
   <i type="int" name="NSIM">     4</i>
   <i type="int" name="NBLK">    -1</i>
   <i type="logical" name="LPLANE"> T  </i>
   <i type="logical" name="LSCALAPACK"> T  </i>
   <i type="logical" name="LSCAAWARE"> F  </i>
   <i type="logical" name="LSCALU"> F  </i>
   <i type="logical" name="LASYNC"> F  </i>
   <i type="logical" name="LORBITALREAL"> F  </i>
  </separator>
  <separator name="miscellaneous" >
   <i type="int" name="IDIOT">     3</i>
   <i type="logical" name="LMUSIC"> F  </i>
   <v name="POMASS">     55.84700000     16.00000000     18.99800000</v>
   <v name="DARWINR">      0.00000000      0.00000000      0.00000000</v>
   <v name="DARWINV">      1.00000000      1.00000000      1.00000000</v>
   <i type="logical" name="LCORR"> T  </i>
  </separator>
  <i type="logical" name="GGA_COMPAT"> T  </i>
  <i type="logical" name="LBERRY"> F  </i>
  <i type="int" name="ICORELEVEL">     0</i>
  <i type="logical" name="LDAU"> F  </i>
  <i type="int" name="I_CONSTRAINED_M">     0</i>
  <separator name="electronic exchange-correlation" >
   <i type="string" name="GGA">--</i>
   <i type="int" name="VOSKOWN">     0</i>
   <i type="logical" name="LHFCALC"> F  </i>
   <i type="string" name="PRECFOCK"></i>
   <i type="logical" name="LSYMGRAD"> F  </i>
   <i type="logical" name="LHFONE"> F  </i>
   <i type="logical" name="LRHFCALC"> F  </i>
   <i type="logical" name="LTHOMAS"> F  </i>
   <i type="logical" name="LMODELHF"> F  </i>
   <i name="ENCUT4O">     -1.00000000</i>
   <i type="int" name="EXXOEP">     0</i>
   <i type="int" name="FOURORBIT">     0</i>
   <i name="AEXX">      0.00000000</i>
   <i name="HFALPHA">      0.00000000</i>
   <i name="MCALPHA">      0.00000000</i>
   <i name="ALDAX">      1.00000000</i>
   <i name="AGGAX">      1.00000000</i>
   <i name="ALDAC">      1.00000000</i>
   <i name="AGGAC">      1.00000000</i>
   <i type="int" name="NKREDX">     1</i>
   <i type="int" name="NKREDY">     1</i>
   <i type="int" name="NKREDZ">     1</i>
   <i type="logical" name="SHIFTRED"> F  </i>
   <i type="logical" name="ODDONLY"> F  </i>
   <i type="logical" name="EVENONLY"> F  </i>
   <i type="int" name="LMAXFOCK">     0</i>
   <i type="int" name="NMAXFOCKAE">     0</i>
   <i type="logical" name="LFOCKAEDFT"> F  </i>
   <i name="HFSCREEN">      0.00000000</i>
   <i name="HFSCREENC">      0.00000000</i>
   <i type="int" name="NBANDSGWLOW">     0</i>
  </separator>
  <separator name="vdW DFT" >
   <i type="logical" name="LUSE_VDW"> F  </i>
   <i name="Zab_VDW">     -0.84910000</i>
   <i name="PARAM1">      0.12340000</i>
   <i name="PARAM2">      1.00000000</i>
   <i name="PARAM3">      0.00000000</i>
  </separator>
  <separator name="model GW" >
   <i type="int" name="MODEL_GW">     0</i>
   <i name="MODEL_EPS0">      8.69476215</i>
   <i name="MODEL_ALPHA">      1.00000000</i>
  </separator>
  <separator name="linear response parameters" >
   <i type="logical" name="LEPSILON"> F  </i>
   <i type="logical" name="LRPA"> F  </i>
   <i type="logical" name="LNABLA"> F  </i>
   <i type="logical" name="LVEL"> F  </i>
   <i type="int" name="KINTER">     0</i>
   <i name="CSHIFT">      0.10000000</i>
   <i name="OMEGAMAX">     -1.00000000</i>
   <i name="DEG_THRESHOLD">      0.00200000</i>
  </separator>
  <separator name="orbital magnetization" >
   <i type="logical" name="NUCIND"> F  </i>
   <v name="MAGPOS">      0.00000000      0.00000000      0.00000000</v>
   <i type="logical" name="LNICSALL"> T  </i>
   <i type="logical" name="ORBITALMAG"> F  </i>
   <i type="logical" name="LMAGBLOCH"> F  </i>
   <i type="logical" name="LCHIMAG"> F  </i>
   <i type="logical" name="LGAUGE"> T  </i>
   <i type="int" name="MAGATOM">     0</i>
   <v name="MAGDIPOL">      0.00000000      0.00000000      0.00000000</v>
   <v name="AVECCONST">      0.00000000      0.00000000      0.00000000</v>
  </separator>
  <separator name="response functions" >
   <i type="logical" name="LADDER"> F  </i>
   <i type="logical" name="LFXC"> F  </i>
   <i type="logical" name="LHARTREE"> T  </i>
   <i type="int" name="IBSE">     0</i>
   <i type="logical" name="LTCTE"> F  </i>
   <i type="logical" name="LTETE"> F  </i>
   <i type="logical" name="LTRIPLET"> F  </i>
   <i type="logical" name="LFXCEPS"> F  </i>
   <i type="logical" name="LFXHEG"> F  </i>
   <i type="logical" name="L2ORDER"> F  </i>
   <i type="logical" name="LUSEW"> F  </i>
   <i name="ENCUTGW">     -2.00000000</i>
   <i name="ENCUTGWSOFT">     -2.00000000</i>
   <i name="ENCUTLF">     -1.00000000</i>
   <i type="int" name="LMAXMP2">    -1</i>
   <i name="SCISSOR">      0.00000000</i>
   <i type="int" name="NOMEGA">     0</i>
   <i type="int" name="NOMEGAR">     0</i>
   <i type="int" name="NBANDSGW">    -1</i>
   <i type="int" name="NBANDSO">    -1</i>
   <i type="int" name="NBANDSV">    -1</i>
   <i type="int" name="NELM">   300</i>
   <i type="int" name="DIM">     3</i>
   <i type="int" name="ANTIRES">     0</i>
   <i name="OMEGAMAX">    -30.00000000</i>
   <i name="OMEGAMIN">    -30.00000000</i>
   <i name="OMEGATL">   -200.00000000</i>
   <i type="int" name="OMEGAGRID">     0</i>
   <i name="CSHIFT">     -0.10000000</i>
   <i type="logical" name="SELFENERGY"> F  </i>
   <i type="logical" name="LSPECTRAL"> F  </i>
   <i type="logical" name="ODDONLYGW"> F  </i>
   <i type="logical" name="EVENONLYGW"> F  </i>
   <i type="int" name="NKREDLFX">     1</i>
   <i type="int" name="NKREDLFY">     1</i>
   <i type="int" name="NKREDLFZ">     1</i>
   <i type="int" name="MAXMEM">  1800</i>
   <i type="int" name="TELESCOPE">     0</i>
   <i type="int" name="TAUPAR">     1</i>
  </separator>
  <separator name="External order field" >
   <i name="OFIELD_KAPPA">      0.00000000</i>
   <v name="OFIELD_K">      0.00000000      0.00000000      0.00000000</v>
   <i name="OFIELD_Q6_NEAR">      0.00000000</i>
   <i name="OFIELD_Q6_FAR">      0.00000000</i>
   <i name="OFIELD_A">      0.00000000</i>
  </separator>
 </parameters>
 <atominfo>
  <atoms>      52 </atoms>
  <types>       3 </types>
  <array name="atoms" >
   <dimension dim="1">ion</dimension>
   <field type="string">element</field>
   <field type="int">atomtype</field>
   <set>
    <rc><c>Fe</c><c>   1</c></rc>
    <rc><c>Fe</c><c>   1</c></rc>
    <rc><c>Fe</c><c>   1</c></rc>
    <rc><c>Fe</c><c>   1</c></rc>
    <rc><c>Fe</c><c>   1</c></rc>
    <rc><c>Fe</c><c>   1</c></rc>
    <rc><c>Fe</c><c>   1</c></rc>
    <rc><c>Fe</c><c>   1</c></rc>
    <rc><c>Fe</c><c>   1</c></rc>
    <rc><c>Fe</c><c>   1</c></rc>
    <rc><c>Fe</c><c>   1</c></rc>
    <rc><c>Fe</c><c>   1</c></rc>
    <rc><c>Fe</c><c>   1</c></rc>
    <rc><c>Fe</c><c>   1</c></rc>
    <rc><c>Fe</c><c>   1</c></rc>
    <rc><c>Fe</c><c>   1</c></rc>
    <rc><c>O </c><c>   2</c></rc>
    <rc><c>O </c><c>   2</c></rc>
    <rc><c>O </c><c>   2</c></rc>
    <rc><c>O </c><c>   2</c></rc>
    <rc><c>F </c><c>   3</c></rc>
    <rc><c>F </c><c>   3</c></rc>
    <rc><c>F </c><c>   3</c></rc>
    <rc><c>F </c><c>   3</c></rc>
    <rc><c>F </c><c>   3</c></rc>
    <rc><c>F </c><c>   3</c></rc>
    <rc><c>F </c><c>   3</c></rc>
    <rc><c>F </c><c>   3</c></rc>
    <rc><c>F </c><c>   3</c></rc>
    <rc><c>F </c><c>   3</c></rc>
    <rc><c>F </c><c>   3</c></rc>
    <rc><c>F </c><c>   3</c></rc>
    <rc><c>F </c><c>   3</c></rc>
    <rc><c>F </c><c>   3</c></rc>
    <rc><c>F </c><c>   3</c></rc>
    <rc><c>F </c><c>   3</c></rc>
    <rc><c>F </c><c>   3</c></rc>
    <rc><c>F </c><c>   3</c></rc>
    <rc><c>F </c><c>   3</c></rc>
    <rc><c>F </c><c>   3</c></rc>
    <rc><c>F </c><c>   3</c></rc>
    <rc><c>F </c><c>   3</c></rc>
    <rc><c>F </c><c>   3</c></rc>
    <rc><c>F </c><c>   3</c></rc>
    <rc><c>F </c><c>   3</c></rc>
    <rc><c>F </c><c>   3</c></rc>
    <rc><c>F </c><c>   3</c></rc>
    <rc><c>F </c><c>   3</c></rc>
    <rc><c>F </c><c>   3</c></rc>
    <rc><c>F </c><c>   3</c></rc>
    <rc><c>F </c><c>   3</c></rc>
    <rc><c>F </c><c>   3</c></rc>
   </set>
  </array>
  <array name="atomtypes" >
   <dimension dim="1">type</dimension>
   <field type="int">atomspertype</field>
   <field type="string">element</field>
   <field>mass</field>
   <field>valence</field>
   <field type="string">pseudopotential</field>
   <set>
    <rc><c>  16</c><c>Fe</c><c>     55.84700000</c><c>      8.00000000</c><c>  PAW_PBE Fe 06Sep2000                  </c></rc>
    <rc><c>   4</c><c>O </c><c>     16.00000000</c><c>      6.00000000</c><c>  PAW_PBE O 08Apr2002                   </c></rc>
    <rc><c>  32</c><c>F </c><c>     18.99800000</c><c>      7.00000000</c><c>  PAW_PBE F 08Apr2002                   </c></rc>
   </set>
  </array>
 </atominfo>
 <structure name="initialpos" >
  <crystal>
   <varray name="basis" >
    <v>       9.40119100       0.00000000      -0.08412900 </v>
    <v>       0.00000000       5.35946700       0.00000000 </v>
    <v>       0.00000000       0.00000000      14.95565100 </v>
   </varray>
   <i name="volume">    753.54605297 </i>
   <varray name="rec_basis" >
    <v>       0.10636950       0.00000000       0.00000000 </v>
    <v>       0.00000000       0.18658572       0.00000000 </v>
    <v>       0.00059835       0.00000000       0.06686436 </v>
   </varray>
  </crystal>
  <varray name="positions" >
   <v>       0.16411200       0.48397600       0.17995900 </v>
   <v>       0.16411200       0.51602400       0.67995900 </v>
   <v>       0.66411200       0.98397600       0.17995900 </v>
   <v>       0.66411200       0.01602400       0.67995900 </v>
   <v>       0.17916100       0.47285200       0.97303200 </v>
   <v>       0.18437900       0.52714800       0.47303200 </v>
   <v>       0.67786700       0.97285200       0.97303200 </v>
   <v>       0.67533200       0.03142100       0.47303200 </v>
   <v>       0.33162900       0.02941400       0.82240100 </v>
   <v>       0.33162900       0.97058600       0.32240100 </v>
   <v>       0.83162900       0.53834700       0.82240100 </v>
   <v>       0.83162900       0.47058600       0.32240100 </v>
   <v>       0.33361900       0.00432000       0.51711500 </v>
   <v>       0.33361900       0.99646400       0.01711500 </v>
   <v>       0.83361900       0.50432000       0.51711500 </v>
   <v>       0.83361900       0.49568000       0.01711500 </v>
   <v>       0.30926400       0.26740800       0.92544800 </v>
   <v>       0.30926400       0.73259200       0.42544800 </v>
   <v>       0.81265600       0.76740800       0.92544800 </v>
   <v>       0.80926400       0.23259200       0.42544800 </v>
   <v>       0.00386100       0.36884200       0.24394900 </v>
   <v>       0.00386100       0.63115800       0.74394900 </v>
   <v>       0.50386100       0.86884200       0.24394900 </v>
   <v>       0.50386100       0.13115800       0.74394900 </v>
   <v>       0.02591400       0.39537700       0.57915900 </v>
   <v>       0.02591400       0.60462300       0.07915900 </v>
   <v>       0.52591400       0.89537700       0.57915900 </v>
   <v>       0.52591400       0.10462300       0.07915900 </v>
   <v>       0.17315400       0.21094800       0.08350500 </v>
   <v>       0.17611800       0.78583000       0.58350500 </v>
   <v>       0.67611800       0.71417000       0.08350500 </v>
   <v>       0.67611800       0.28583000       0.58725100 </v>
   <v>       0.18147400       0.20344500       0.73253500 </v>
   <v>       0.18147400       0.79655500       0.23945400 </v>
   <v>       0.68147400       0.70344500       0.73945400 </v>
   <v>       0.69140900       0.29655500       0.23945400 </v>
   <v>       0.18900300       0.20186000       0.42366300 </v>
   <v>       0.18900300       0.79814000       0.92366300 </v>
   <v>       0.68900300       0.70186000       0.42366300 </v>
   <v>       0.69703800       0.29814000       0.92366300 </v>
   <v>       0.29347700       0.34686800       0.57827500 </v>
   <v>       0.29347700       0.65313200       0.07827500 </v>
   <v>       0.79347700       0.84686800       0.57827500 </v>
   <v>       0.79347700       0.15313200       0.07827500 </v>
   <v>       0.30310600       0.30561100       0.24801900 </v>
   <v>       0.30310600       0.69438900       0.74801900 </v>
   <v>       0.80010600       0.80561100       0.24717200 </v>
   <v>       0.80310600       0.19438900       0.74801900 </v>
   <v>       0.50000600       0.13464800       0.42295500 </v>
   <v>       0.48536100       0.86358800       0.92295500 </v>
   <v>       0.99071400       0.63464800       0.42295500 </v>
   <v>       0.99175700       0.36535200       0.92295500 </v>
  </varray>
 </structure>
 <calculation>
  <scstep>
   <time name="diag">    0.40    0.64</time>
   <time name="diis">    1.07    1.58</time>
   <time name="orth">    0.13    0.20</time>
   <time name="total">    1.88    2.85</time>
   <energy>
    <i name="alphaZ">   1136.56246079 </i>
    <i name="ewald"> -19694.95503063 </i>
    <i name="hartreedc"> -12192.72305202 </i>
    <i name="XCdc">   1336.26730150 </i>
    <i name="pawpsdc">  27518.38149996 </i>
    <i name="pawaedc"> -27812.06485035 </i>
    <i name="eentropy">      0.16510579 </i>
    <i name="bandstr">   2133.27420349 </i>
    <i name="atom">  32340.34786160 </i>
    <i name="e_fr_energy">   4765.25550012 </i>
    <i name="e_wo_entrp">   4765.09039434 </i>
    <i name="e_0_energy">   4765.20046486 </i>
   </energy>
  </scstep>
  <scstep>
   <time name="diag">    0.40    0.61</time>
   <time name="diis">    1.02    1.47</time>
   <time name="orth">    0.15    0.24</time>
   <time name="total">    1.58    2.31</time>
   <energy>
    <i name="e_fr_energy">   1582.31418626 </i>
    <i name="e_wo_entrp">   1582.28092918 </i>
    <i name="e_0_energy">   1582.30310057 </i>
   </energy>
  </scstep>
  <scstep>
   <time name="diag">    0.33    0.48</time>
   <time name="diis">    1.05    1.53</time>
   <time name="orth">    0.09    0.13</time>
   <time name="total">    1.48    2.15</time>
   <energy>
    <i name="e_fr_energy">    545.19124067 </i>
    <i name="e_wo_entrp">    544.75917039 </i>
    <i name="e_0_energy">    545.04721724 </i>
   </energy>
  </scstep>
  <scstep>
   <time name="diag">    0.28    0.41</time>
   <time name="diis">    1.07    1.56</time>
   <time name="orth">    0.10    0.14</time>
   <time name="total">    1.45    2.11</time>
   <energy>
    <i name="e_fr_energy">    118.04862348 </i>
    <i name="e_wo_entrp">    117.96810406 </i>
    <i name="e_0_energy">    118.02178367 </i>
   </energy>
  </scstep>
  <scstep>
   <time name="diag">    0.46    0.66</time>
   <time name="diis">    1.24    1.53</time>
   <time name="orth">    0.08    0.16</time>
   <time name="total">    1.79    2.35</time>
   <energy>
    <i name="e_fr_energy">   -129.96086523 </i>
    <i name="e_wo_entrp">   -130.05086958 </i>
    <i name="e_0_energy">   -129.99086668 </i>
   </energy>
  </scstep>
  <scstep>
   <time name="diag">    0.30    0.47</time>
   <time name="diis">    1.02    1.44</time>
   <time name="orth">    0.10    0.17</time>
   <time name="total">    1.43    2.07</time>
   <energy>
    <i name="e_fr_energy">   -241.36399763 </i>
    <i name="e_wo_entrp">   -241.47352414 </i>
    <i name="e_0_energy">   -241.40050646 </i>
   </energy>
  </scstep>
  <scstep>
   <time name="diag">    0.32    0.48</time>
   <time name="diis">    1.03    1.54</time>
   <time name="orth">    0.10    0.15</time>
   <time name="total">    1.45    2.16</time>
   <energy>
    <i name="e_fr_energy">   -296.16116313 </i>
    <i name="e_wo_entrp">   -296.20858209 </i>
    <i name="e_0_energy">   -296.17696945 </i>
   </energy>
  </scstep>
  <scstep>
   <time name="diag">    0.35    0.52</time>
   <time name="diis">    1.01    1.53</time>
   <time name="orth">    0.08    0.14</time>
   <time name="total">    1.44    2.19</time>
   <energy>
    <i name="e_fr_energy">   -317.19151878 </i>
    <i name="e_wo_entrp">   -317.20825381 </i>
    <i name="e_0_energy">   -317.19709713 </i>
   </energy>
  </scstep>
  <scstep>
   <time name="diag">    0.35    0.53</time>
   <time name="diis">    3.34    4.89</time>
   <time name="orth">    0.12    0.15</time>
   <time name="total">    3.81    5.56</time>
   <energy>
    <i name="e_fr_energy">   -336.74673562 </i>
    <i name="e_wo_entrp">   -336.75666327 </i>
    <i name="e_0_energy">   -336.75004483 </i>
   </energy>
  </scstep>
  <scstep>
   <time name="diag">    0.37    0.60</time>
   <time name="diis">    3.31    5.01</time>
   <time name="orth">    0.12    0.16</time>
   <time name="total">    3.81    5.78</time>
   <energy>
    <i name="e_fr_energy">   -337.34315257 </i>
    <i name="e_wo_entrp">   -337.35363706 </i>
    <i name="e_0_energy">   -337.34664740 </i>
   </energy>
  </scstep>
  <scstep>
   <time name="diag">    0.42    0.64</time>
   <time name="diis">    3.15    4.70</time>
   <time name="orth">    0.09    0.18</time>
   <time name="total">    3.66    5.51</time>
   <energy>
    <i name="e_fr_energy">   -337.68527532 </i>
    <i name="e_wo_entrp">   -337.68089449 </i>
    <i name="e_0_energy">   -337.68381504 </i>
   </energy>
  </scstep>
  <scstep>
   <time name="diag">    0.26    0.42</time>
   <time name="diis">    2.98    3.78</time>
   <time name="orth">    0.15    0.18</time>
   <time name="total">    3.55    4.56</time>
   <energy>
    <i name="e_fr_energy">   -337.80742839 </i>
    <i name="e_wo_entrp">   -337.79974008 </i>
    <i name="e_0_energy">   -337.80486562 </i>
   </energy>
  </scstep>
  <scstep>
   <time name="diag">    0.35    0.45</time>
   <time name="diis">    2.37    3.25</time>
   <time name="orth">    0.17    0.24</time>
   <time name="total">    3.15    4.35</time>
   <energy>
    <i name="e_fr_energy">   -324.12330274 </i>
    <i name="e_wo_entrp">   -323.97678037 </i>
    <i name="e_0_energy">   -324.07446195 </i>
   </energy>
  </scstep>
  <scstep>
   <time name="diag">    0.34    0.52</time>
   <time name="diis">    2.19    3.42</time>
   <time name="orth">    0.10    0.21</time>
   <time name="total">    2.90    4.65</time>
   <energy>
    <i name="e_fr_energy">   -397.78845859 </i>
    <i name="e_wo_entrp">   -397.81865555 </i>
    <i name="e_0_energy">   -397.79852424 </i>
   </energy>
  </scstep>
  <scstep>
   <time name="diag">    0.34    0.51</time>
   <time name="diis">    2.15    3.38</time>
   <time name="orth">    0.14    0.23</time>
   <time name="total">    3.02    4.59</time>
   <energy>
    <i name="e_fr_energy">   -320.12507114 </i>
    <i name="e_wo_entrp">   -320.11386199 </i>
    <i name="e_0_energy">   -320.12133476 </i>
   </energy>
  </scstep>
  <scstep>
   <time name="diag">    0.41    0.58</time>
   <time name="diis">    2.25    3.25</time>
   <time name="orth">    0.10    0.15</time>
   <time name="total">    3.01    4.37</time>
   <energy>
    <i name="e_fr_energy">   -312.43927389 </i>
    <i name="e_wo_entrp">   -312.38478468 </i>
    <i name="e_0_energy">   -312.42111082 </i>
   </energy>
  </scstep>
  <scstep>
   <time name="diag">    0.51    0.65</time>
   <time name="diis">    2.24    3.18</time>
   <time name="orth">    0.11    0.16</time>
   <time name="total">    3.22    4.63</time>
   <energy>
    <i name="e_fr_energy">   -361.18277527 </i>
    <i name="e_wo_entrp">   -361.27994546 </i>
    <i name="e_0_energy">   -361.21516533 </i>
   </energy>
  </scstep>
  <scstep>
   <time name="diag">    0.37    0.54</time>
   <time name="diis">    2.21    3.31</time>
   <time name="orth">    0.12    0.21</time>
   <time name="total">    3.01    4.47</time>
   <energy>
    <i name="e_fr_energy">   -358.34372882 </i>
    <i name="e_wo_entrp">   -358.40823991 </i>
    <i name="e_0_energy">   -358.36523252 </i>
   </energy>
  </scstep>
  <scstep>
   <time name="diag">    0.34    0.52</time>
   <time name="diis">    2.16    3.43</time>
   <time name="orth">    0.10    0.20</time>
   <time name="total">    2.85    4.49</time>
   <energy>
    <i name="e_fr_energy">   -319.78417128 </i>
    <i name="e_wo_entrp">   -319.66928044 </i>
    <i name="e_0_energy">   -319.74587433 </i>
   </energy>
  </scstep>
  <scstep>
   <time name="diag">    0.29    0.43</time>
   <time name="diis">    2.02    2.99</time>
   <time name="orth">    0.10    0.12</time>
   <time name="total">    2.65    3.84</time>
   <energy>
    <i name="e_fr_energy">   -339.58194858 </i>
    <i name="e_wo_entrp">   -339.42208681 </i>
    <i name="e_0_energy">   -339.52866132 </i>
   </energy>
  </scstep>
  <scstep>
   <time name="diag">    0.36    0.51</time>
   <time name="diis">    2.62    3.13</time>
   <time name="orth">    0.10    0.12</time>
   <time name="total">    3.41    4.23</time>
   <energy>
    <i name="e_fr_energy">   -367.94119326 </i>
    <i name="e_wo_entrp">   -367.83346437 </i>
    <i name="e_0_energy">   -367.90528363 </i>
   </energy>
  </scstep>
  <scstep>
   <time name="diag">    0.33    0.39</time>
   <time name="diis">    2.15    3.02</time>
   <time name="orth">    0.08    0.13</time>
   <time name="total">    2.79    3.86</time>
   <energy>
    <i name="e_fr_energy">   -315.03042334 </i>
    <i name="e_wo_entrp">   -315.02379276 </i>
    <i name="e_0_energy">   -315.02821314 </i>
   </energy>
  </scstep>
  <scstep>
   <time name="diag">    0.38    0.49</time>
   <time name="diis">    2.18    3.12</time>
   <time name="orth">    0.11    0.17</time>
   <time name="total">    2.93    4.15</time>
   <energy>
    <i name="e_fr_energy">   -305.73746791 </i>
    <i name="e_wo_entrp">   -305.67337068 </i>
    <i name="e_0_energy">   -305.71610217 </i>
   </energy>
  </scstep>
  <scstep>
   <time name="diag">    0.28    0.41</time>
   <time name="diis">    2.04    3.12</time>
   <time name="orth">    0.11    0.15</time>
   <time name="total">    2.68    4.00</time>
   <energy>
    <i name="e_fr_energy">   -304.25766835 </i>
    <i name="e_wo_entrp">   -304.21837660 </i>
    <i name="e_0_energy">   -304.24457110 </i>
   </energy>
  </scstep>
  <scstep>
   <time name="diag">    0.40    0.49</time>
   <time name="diis">    2.44    3.16</time>
   <time name="orth">    0.10    0.21</time>
   <time name="total">    3.27    4.43</time>
   <energy>
    <i name="e_fr_energy">   -290.88599584 </i>
    <i name="e_wo_entrp">   -290.69344235 </i>
    <i name="e_0_energy">   -290.82181135 </i>
   </energy>
  </scstep>
  <scstep>
   <time name="diag">    0.35    0.55</time>
   <time name="diis">    2.21    3.01</time>
   <time name="orth">    0.09    0.12</time>
   <time name="total">    2.90    4.07</time>
   <energy>
    <i name="e_fr_energy">   -288.41230701 </i>
    <i name="e_wo_entrp">   -288.30315197 </i>
    <i name="e_0_energy">   -288.37592200 </i>
   </energy>
  </scstep>
  <scstep>
   <time name="diag">    0.46    0.66</time>
   <time name="diis">    2.20    3.28</time>
   <time name="orth">    0.11    0.17</time>
   <time name="total">    3.10    4.52</time>
   <energy>
    <i name="e_fr_energy">   -281.70476252 </i>
    <i name="e_wo_entrp">   -281.58694554 </i>
    <i name="e_0_energy">   -281.66549020 </i>
   </energy>
  </scstep>
  <scstep>
   <time name="diag">    0.38    0.54</time>
   <time name="diis">    2.13    3.03</time>
   <time name="orth">    0.13    0.15</time>
   <time name="total">    2.93    4.15</time>
   <energy>
    <i name="e_fr_energy">   -279.57094789 </i>
    <i name="e_wo_entrp">   -279.56030345 </i>
    <i name="e_0_energy">   -279.56739974 </i>
   </energy>
  </scstep>
  <scstep>
   <time name="diag">    0.55    0.73</time>
   <time name="diis">    2.01    3.08</time>
   <time name="orth">    0.15    0.23</time>
   <time name="total">    3.02    4.46</time>
   <energy>
    <i name="e_fr_energy">   -278.40275435 </i>
    <i name="e_wo_entrp">   -278.36846988 </i>
    <i name="e_0_energy">   -278.39132619 </i>
   </energy>
  </scstep>
  <scstep>
   <time name="diag">    0.42    0.63</time>
   <time name="diis">    1.99    2.81</time>
   <time name="orth">    0.08    0.11</time>
   <time name="total">    2.79    4.03</time>
   <energy>
    <i name="e_fr_energy">   -278.07950565 </i>
    <i name="e_wo_entrp">   -277.93249869 </i>
    <i name="e_0_energy">   -278.03050333 </i>
   </energy>
  </scstep>
  <scstep>
   <time name="diag">    0.34    0.48</time>
   <time name="diis">    1.99    2.97</time>
   <time name="orth">    0.09    0.15</time>
   <time name="total">    2.74    4.06</time>
   <energy>
    <i name="e_fr_energy">   -277.73341210 </i>
    <i name="e_wo_entrp">   -277.63563963 </i>
    <i name="e_0_energy">   -277.70082128 </i>
   </energy>
  </scstep>
  <scstep>
   <time name="diag">    0.37    0.49</time>
   <time name="diis">    2.07    3.05</time>
   <time name="orth">    0.12    0.16</time>
   <time name="total">    2.82    4.02</time>
   <energy>
    <i name="e_fr_energy">   -277.47629444 </i>
    <i name="e_wo_entrp">   -277.36333737 </i>
    <i name="e_0_energy">   -277.43864208 </i>
   </energy>
  </scstep>
  <scstep>
   <time name="diag">    0.40    0.62</time>
   <time name="diis">    2.03    2.97</time>
   <time name="orth">    0.11    0.17</time>
   <time name="total">    2.83    4.21</time>
   <energy>
    <i name="e_fr_energy">   -277.33122186 </i>
    <i name="e_wo_entrp">   -277.23304018 </i>
    <i name="e_0_energy">   -277.29849463 </i>
   </energy>
  </scstep>
  <scstep>
   <time name="diag">    0.44    0.61</time>
   <time name="diis">    2.09    3.06</time>
   <time name="orth">    0.10    0.15</time>
   <time name="total">    2.92    4.23</time>
   <energy>
    <i name="e_fr_energy">   -277.58285891 </i>
    <i name="e_wo_entrp">   -277.49019877 </i>
    <i name="e_0_energy">   -277.55197220 </i>
   </energy>
  </scstep>
  <scstep>
   <time name="diag">    0.31    0.47</time>
   <time name="diis">    1.98    2.94</time>
   <time name="orth">    0.09    0.14</time>
   <time name="total">    2.60    3.86</time>
   <energy>
    <i name="e_fr_energy">   -277.40905923 </i>
    <i name="e_wo_entrp">   -277.35315623 </i>
    <i name="e_0_energy">   -277.39042490 </i>
   </energy>
  </scstep>
  <scstep>
   <time name="diag">    0.48    0.72</time>
   <time name="diis">    2.07    3.05</time>
   <time name="orth">    0.11    0.16</time>
   <time name="total">    2.91    4.25</time>
   <energy>
    <i name="e_fr_energy">   -277.33881237 </i>
    <i name="e_wo_entrp">   -277.23086108 </i>
    <i name="e_0_energy">   -277.30282860 </i>
   </energy>
  </scstep>
  <scstep>
   <time name="diag">    0.67    1.35</time>
   <time name="diis">    2.18    3.27</time>
   <time name="orth">    0.09    0.13</time>
   <time name="total">    3.26    5.23</time>
   <energy>
    <i name="e_fr_energy">   -277.82300437 </i>
    <i name="e_wo_entrp">   -277.69663026 </i>
    <i name="e_0_energy">   -277.78087967 </i>
   </energy>
  </scstep>
  <scstep>
   <time name="diag">    0.33    0.51</time>
   <time name="diis">    2.03    3.06</time>
   <time name="orth">    0.10    0.14</time>
   <time name="total">    2.70    4.05</time>
   <energy>
    <i name="e_fr_energy">   -277.43124806 </i>
    <i name="e_wo_entrp">   -277.41271006 </i>
    <i name="e_0_energy">   -277.42506873 </i>
   </energy>
  </scstep>
  <scstep>
   <time name="diag">    0.35    0.53</time>
   <time name="diis">    2.03    3.25</time>
   <time name="orth">    0.07    0.09</time>
   <time name="total">    2.69    4.20</time>
   <energy>
    <i name="e_fr_energy">   -277.52316669 </i>
    <i name="e_wo_entrp">   -277.50650990 </i>
    <i name="e_0_energy">   -277.51761443 </i>
   </energy>
  </scstep>
  <scstep>
   <time name="diag">    0.45    0.50</time>
   <time name="diis">    2.28    3.44</time>
   <time name="orth">    0.13    0.20</time>
   <time name="total">    3.17    4.56</time>
   <energy>
    <i name="e_fr_energy">   -277.13607983 </i>
    <i name="e_wo_entrp">   -277.18273791 </i>
    <i name="e_0_energy">   -277.15163252 </i>
   </energy>
  </scstep>
  <scstep>
   <time name="diag">    0.41    0.63</time>
   <time name="diis">    2.54    3.70</time>
   <time name="orth">    0.19    0.25</time>
   <time name="total">    3.42    5.01</time>
   <energy>
    <i name="e_fr_energy">   -277.09794183 </i>
    <i name="e_wo_entrp">   -277.15228696 </i>
    <i name="e_0_energy">   -277.11605687 </i>
   </energy>
  </scstep>
  <scstep>
   <time name="diag">    0.37    0.47</time>
   <time name="diis">    2.02    2.97</time>
   <time name="orth">    0.14    0.17</time>
   <time name="total">    2.90    4.07</time>
   <energy>
    <i name="e_fr_energy">   -277.07686224 </i>
    <i name="e_wo_entrp">   -277.14628546 </i>
    <i name="e_0_energy">   -277.10000331 </i>
   </energy>
  </scstep>
  <scstep>
   <time name="diag">    0.38    0.57</time>
   <time name="diis">    2.05    2.95</time>
   <time name="orth">    0.15    0.18</time>
   <time name="total">    2.93    4.19</time>
   <energy>
    <i name="e_fr_energy">   -277.07984693 </i>
    <i name="e_wo_entrp">   -277.14568954 </i>
    <i name="e_0_energy">   -277.10179447 </i>
   </energy>
  </scstep>
  <scstep>
   <time name="diag">    0.33    0.40</time>
   <time name="diis">    2.58    3.09</time>
   <time name="orth">    0.12    0.17</time>
   <time name="total">    3.42    4.14</time>
   <energy>
    <i name="e_fr_energy">   -277.07450179 </i>
    <i name="e_wo_entrp">   -277.14172275 </i>
    <i name="e_0_energy">   -277.09690877 </i>
   </energy>
  </scstep>
  <scstep>
   <time name="diag">    0.31    0.54</time>
   <time name="diis">    2.00    2.92</time>
   <time name="orth">    0.12    0.19</time>
   <time name="total">    2.70    4.07</time>
   <energy>
    <i name="e_fr_energy">   -277.06123572 </i>
    <i name="e_wo_entrp">   -277.12986996 </i>
    <i name="e_0_energy">   -277.08411380 </i>
   </energy>
  </scstep>
  <scstep>
   <time name="diag">    0.38    0.53</time>
   <time name="diis">    1.83    2.74</time>
   <time name="orth">    0.14    0.20</time>
   <time name="total">    2.62    3.90</time>
   <energy>
    <i name="e_fr_energy">   -277.05604105 </i>
    <i name="e_wo_entrp">   -277.12373574 </i>
    <i name="e_0_energy">   -277.07860595 </i>
   </energy>
  </scstep>
  <scstep>
   <time name="diag">    0.36    0.48</time>
   <time name="diis">    1.64    2.37</time>
   <time name="orth">    0.14    0.14</time>
   <time name="total">    2.56    3.58</time>
   <energy>
    <i name="e_fr_energy">   -277.05314438 </i>
    <i name="e_wo_entrp">   -277.12181988 </i>
    <i name="e_0_energy">   -277.07603622 </i>
   </energy>
  </scstep>
  <scstep>
   <time name="diag">    0.72    1.01</time>
   <time name="diis">    1.96    2.57</time>
   <time name="orth">    0.11    0.15</time>
   <time name="total">    3.14    4.28</time>
   <energy>
    <i name="e_fr_energy">   -277.05085730 </i>
    <i name="e_wo_entrp">   -277.11845545 </i>
    <i name="e_0_energy">   -277.07339002 </i>
   </energy>
  </scstep>
  <scstep>
   <time name="diag">    0.42    0.68</time>
   <time name="diis">    1.44    2.07</time>
   <time name="orth">    0.13    0.20</time>
   <time name="total">    2.38    3.47</time>
   <energy>
    <i name="e_fr_energy">   -277.04891976 </i>
    <i name="e_wo_entrp">   -277.11654835 </i>
    <i name="e_0_energy">   -277.07146262 </i>
   </energy>
  </scstep>
  <scstep>
   <time name="diag">    0.34    0.52</time>
   <time name="diis">    1.52    2.29</time>
   <time name="orth">    0.14    0.21</time>
   <time name="total">    2.30    3.47</time>
   <energy>
    <i name="e_fr_energy">   -277.04796491 </i>
    <i name="e_wo_entrp">   -277.11313871 </i>
    <i name="e_0_energy">   -277.06968951 </i>
   </energy>
  </scstep>
  <scstep>
   <time name="diag">    0.30    0.50</time>
   <time name="diis">    1.37    1.61</time>
   <time name="orth">    0.25    0.32</time>
   <time name="total">    2.22    2.93</time>
   <energy>
    <i name="e_fr_energy">   -277.04748938 </i>
    <i name="e_wo_entrp">   -277.11246897 </i>
    <i name="e_0_energy">   -277.06914924 </i>
   </energy>
  </scstep>
  <scstep>
   <time name="diag">    0.31    0.48</time>
   <time name="diis">    1.09    1.51</time>
   <time name="orth">    0.15    0.20</time>
   <time name="total">    1.68    2.41</time>
   <energy>
    <i name="alphaZ">   1136.56246079 </i>
    <i name="ewald"> -19694.95503063 </i>
    <i name="hartreedc"> -12342.58433839 </i>
    <i name="XCdc">   1356.61331859 </i>
    <i name="pawpsdc">  32608.47295451 </i>
    <i name="pawaedc"> -32912.96606521 </i>
    <i name="eentropy">      0.06321658 </i>
    <i name="bandstr">  -2768.60188145 </i>
    <i name="atom">  32340.34786160 </i>
    <i name="e_fr_energy">   -277.04750362 </i>
    <i name="e_wo_entrp">   -277.11072020 </i>
    <i name="e_0_energy">   -277.06857582 </i>
   </energy>
  </scstep>
  <structure>
   <crystal>
    <varray name="basis" >
     <v>       9.40119100       0.00000000      -0.08412900 </v>
     <v>       0.00000000       5.35946700       0.00000000 </v>
     <v>       0.00000000       0.00000000      14.95565100 </v>
    </varray>
    <i name="volume">    753.54605297 </i>
    <varray name="rec_basis" >
     <v>       0.10636950       0.00000000       0.00000000 </v>
     <v>       0.00000000       0.18658572       0.00000000 </v>
     <v>       0.00059835       0.00000000       0.06686436 </v>
    </varray>
   </crystal>
   <varray name="positions" >
    <v>       0.16411200       0.48397600       0.17995900 </v>
    <v>       0.16411200       0.51602400       0.67995900 </v>
    <v>       0.66411200       0.98397600       0.17995900 </v>
    <v>       0.66411200       0.01602400       0.67995900 </v>
    <v>       0.17916100       0.47285200       0.97303200 </v>
    <v>       0.18437900       0.52714800       0.47303200 </v>
    <v>       0.67786700       0.97285200       0.97303200 </v>
    <v>       0.67533200       0.03142100       0.47303200 </v>
    <v>       0.33162900       0.02941400       0.82240100 </v>
    <v>       0.33162900       0.97058600       0.32240100 </v>
    <v>       0.83162900       0.53834700       0.82240100 </v>
    <v>       0.83162900       0.47058600       0.32240100 </v>
    <v>       0.33361900       0.00432000       0.51711500 </v>
    <v>       0.33361900       0.99646400       0.01711500 </v>
    <v>       0.83361900       0.50432000       0.51711500 </v>
    <v>       0.83361900       0.49568000       0.01711500 </v>
    <v>       0.30926400       0.26740800       0.92544800 </v>
    <v>       0.30926400       0.73259200       0.42544800 </v>
    <v>       0.81265600       0.76740800       0.92544800 </v>
    <v>       0.80926400       0.23259200       0.42544800 </v>
    <v>       0.00386100       0.36884200       0.24394900 </v>
    <v>       0.00386100       0.63115800       0.74394900 </v>
    <v>       0.50386100       0.86884200       0.24394900 </v>
    <v>       0.50386100       0.13115800       0.74394900 </v>
    <v>       0.02591400       0.39537700       0.57915900 </v>
    <v>       0.02591400       0.60462300       0.07915900 </v>
    <v>       0.52591400       0.89537700       0.57915900 </v>
    <v>       0.52591400       0.10462300       0.07915900 </v>
    <v>       0.17315400       0.21094800       0.08350500 </v>
    <v>       0.17611800       0.78583000       0.58350500 </v>
    <v>       0.67611800       0.71417000       0.08350500 </v>
    <v>       0.67611800       0.28583000       0.58725100 </v>
    <v>       0.18147400       0.20344500       0.73253500 </v>
    <v>       0.18147400       0.79655500       0.23945400 </v>
    <v>       0.68147400       0.70344500       0.73945400 </v>
    <v>       0.69140900       0.29655500       0.23945400 </v>
    <v>       0.18900300       0.20186000       0.42366300 </v>
    <v>       0.18900300       0.79814000       0.92366300 </v>
    <v>       0.68900300       0.70186000       0.42366300 </v>
    <v>       0.69703800       0.29814000       0.92366300 </v>
    <v>       0.29347700       0.34686800       0.57827500 </v>
    <v>       0.29347700       0.65313200       0.07827500 </v>
    <v>       0.79347700       0.84686800       0.57827500 </v>
    <v>       0.79347700       0.15313200       0.07827500 </v>
    <v>       0.30310600       0.30561100       0.24801900 </v>
    <v>       0.30310600       0.69438900       0.74801900 </v>
    <v>       0.80010600       0.80561100       0.24717200 </v>
    <v>       0.80310600       0.19438900       0.74801900 </v>
    <v>       0.50000600       0.13464800       0.42295500 </v>
    <v>       0.48536100       0.86358800       0.92295500 </v>
    <v>       0.99071400       0.63464800       0.42295500 </v>
    <v>       0.99175700       0.36535200       0.92295500 </v>
   </varray>
  </structure>
  <varray name="forces" >
   <v>       0.00512202       0.13644348      -0.45505509 </v>
   <v>      -0.06794899       0.10760823      -0.71752053 </v>
   <v>       0.11545744       0.17818205      -0.43794048 </v>
   <v>       0.19080609      -0.08515062      -0.39748062 </v>
   <v>      -0.18206853      -0.68336883       1.26603110 </v>
   <v>      -0.81612241       0.49984008       1.28770776 </v>
   <v>       0.19637973      -0.75452790       1.19681096 </v>
   <v>       0.74816449       0.29415231       1.32538635 </v>
   <v>      -0.40491704       0.92741106      -0.05354926 </v>
   <v>      -0.52528323      -1.07511027      -0.11673383 </v>
   <v>      -0.37753000       0.87150556       0.09325188 </v>
   <v>      -0.31981606      -1.03965423      -0.00854621 </v>
   <v>       0.27473424      -1.29469503      -1.30620718 </v>
   <v>       0.26583509       1.21206251      -1.41200794 </v>
   <v>       0.42007220      -1.16304705      -1.32344297 </v>
   <v>       0.46201102       1.11552355      -1.39065095 </v>
   <v>      -0.18506133      -1.80091962       0.09335633 </v>
   <v>       0.27062354       2.08530427       0.01318644 </v>
   <v>      -0.52510916      -1.65420425       0.10156716 </v>
   <v>      -0.34975768       1.76719567       0.23065227 </v>
   <v>      -0.29969931       0.24131395       0.35006114 </v>
   <v>      -0.31463954      -0.20249318       0.35002233 </v>
   <v>      -0.35049569       0.26839053       0.36554592 </v>
   <v>      -0.35209212      -0.22770594       0.37358225 </v>
   <v>      -0.65271765       0.27393143      -0.33958314 </v>
   <v>      -0.63162505      -0.23094019      -0.31852244 </v>
   <v>      -0.66238031       0.25175409      -0.37691879 </v>
   <v>      -0.64384246      -0.23406496      -0.39174948 </v>
   <v>       0.36858463      -0.22098047      -0.41713751 </v>
   <v>       0.28617995       0.33719636      -0.40638553 </v>
   <v>       0.20741190      -0.32996834      -0.47743308 </v>
   <v>       0.17660563       0.34389504      -0.53176281 </v>
   <v>       0.71958136      -0.11246840       1.05473781 </v>
   <v>       0.69594105      -0.12475452       0.61580615 </v>
   <v>       0.71776417       0.14241566       0.66360149 </v>
   <v>       0.42060648      -0.05477565       0.62090462 </v>
   <v>       0.63721167      -0.27713416       0.04552204 </v>
   <v>       0.50704828       0.26400120       0.06620710 </v>
   <v>       0.50458588      -0.13876051       0.11975426 </v>
   <v>       0.28338642       0.30003593       0.05528102 </v>
   <v>       0.32254189       0.20068020      -0.42897587 </v>
   <v>       0.21292099      -0.19775442      -0.36033201 </v>
   <v>       0.17989830       0.12544872      -0.33302305 </v>
   <v>       0.20910149      -0.16392868      -0.38294685 </v>
   <v>      -0.17634649      -0.18970419       0.31056856 </v>
   <v>      -0.18275943       0.13661329       0.32419986 </v>
   <v>      -0.00902365      -0.25807963       0.39406545 </v>
   <v>      -0.25091244       0.13671767       0.28018754 </v>
   <v>      -0.72774980      -0.23349215       0.00699518 </v>
   <v>      -0.07882652       0.56536870       0.25017499 </v>
   <v>      -0.16574760      -0.56215771       0.28315444 </v>
   <v>      -0.14610343       0.52684935       0.24558324 </v>
  </varray>
  <varray name="stress" >
   <v>    -204.31265424      -0.95141002      -0.72592190 </v>
   <v>      -0.95140905    -206.73985125      -2.73949004 </v>
   <v>      -0.72592157      -2.73948992    -235.95822035 </v>
  </varray>
  <energy>
   <i name="e_fr_energy">   -277.04750362 </i>
   <i name="e_wo_entrp">   -277.06857582 </i>
   <i name="e_0_energy">      0.06321658 </i>
  </energy>
  <time name="totalsc">  148.66  214.87</time>
  <eigenvalues>
   <array>
    <dimension dim="1">band</dimension>
    <dimension dim="2">kpoint</dimension>
    <dimension dim="3">spin</dimension>
    <field>eigene</field>
    <field>occ</field>
    <set>
     <set comment="spin 1">
      <set comment="kpoint 1">
       <r>  -23.8603    1.0000 </r>
       <r>  -23.8299    1.0000 </r>
       <r>  -23.7551    1.0000 </r>
       <r>  -23.7252    1.0000 </r>
       <r>  -23.6529    1.0000 </r>
       <r>  -23.6228    1.0000 </r>
       <r>  -23.5849    1.0000 </r>
       <r>  -23.5717    1.0000 </r>
       <r>  -23.4991    1.0000 </r>
       <r>  -23.4982    1.0000 </r>
       <r>  -23.4564    1.0000 </r>
       <r>  -23.3705    1.0000 </r>
       <r>  -23.3162    1.0000 </r>
       <r>  -23.2795    1.0000 </r>
       <r>  -23.2493    1.0000 </r>
       <r>  -23.2154    1.0000 </r>
       <r>  -23.1799    1.0000 </r>
       <r>  -23.1503    1.0000 </r>
       <r>  -23.1267    1.0000 </r>
       <r>  -23.0982    1.0000 </r>
       <r>  -23.0964    1.0000 </r>
       <r>  -23.0865    1.0000 </r>
       <r>  -23.0489    1.0000 </r>
       <r>  -23.0391    1.0000 </r>
       <r>  -23.0229    1.0000 </r>
       <r>  -22.9867    1.0000 </r>
       <r>  -22.9612    1.0000 </r>
       <r>  -22.9556    1.0000 </r>
       <r>  -22.8459    1.0000 </r>
       <r>  -22.8065    1.0000 </r>
       <r>  -22.7838    1.0000 </r>
       <r>  -22.6441    1.0000 </r>
       <r>  -18.9825    1.0000 </r>
       <r>  -18.8262    1.0000 </r>
       <r>  -18.7656    1.0000 </r>
       <r>  -18.7580    1.0000 </r>
       <r>   -6.9837    1.0000 </r>
       <r>   -6.9632    1.0000 </r>
       <r>   -6.8840    1.0000 </r>
       <r>   -6.8081    1.0000 </r>
       <r>   -6.7725    1.0000 </r>
       <r>   -6.7421    1.0000 </r>
       <r>   -6.7290    1.0000 </r>
       <r>   -6.6909    1.0000 </r>
       <r>   -6.4703    1.0000 </r>
       <r>   -6.3784    1.0000 </r>
       <r>   -6.3178    1.0000 </r>
       <r>   -6.2370    1.0000 </r>
       <r>   -6.2083    1.0000 </r>
       <r>   -6.1629    1.0000 </r>
       <r>   -6.1373    1.0000 </r>
       <r>   -6.1227    1.0000 </r>
       <r>   -6.0959    1.0000 </r>
       <r>   -6.0729    1.0000 </r>
       <r>   -6.0660    1.0000 </r>
       <r>   -6.0456    1.0000 </r>
       <r>   -6.0058    1.0000 </r>
       <r>   -5.9820    1.0000 </r>
       <r>   -5.9643    1.0000 </r>
       <r>   -5.9588    1.0000 </r>
       <r>   -5.9362    1.0000 </r>
       <r>   -5.9058    1.0000 </r>
       <r>   -5.8972    1.0000 </r>
       <r>   -5.8766    1.0000 </r>
       <r>   -5.8581    1.0000 </r>
       <r>   -5.8436    1.0000 </r>
       <r>   -5.8199    1.0000 </r>
       <r>   -5.7650    1.0000 </r>
       <r>   -5.7305    1.0000 </r>
       <r>   -5.7158    1.0000 </r>
       <r>   -5.6908    1.0000 </r>
       <r>   -5.6540    1.0000 </r>
       <r>   -5.6248    1.0000 </r>
       <r>   -5.6075    1.0000 </r>
       <r>   -5.5898    1.0000 </r>
       <r>   -5.5627    1.0000 </r>
       <r>   -5.5289    1.0000 </r>
       <r>   -5.5165    1.0000 </r>
       <r>   -5.5035    1.0000 </r>
       <r>   -5.4524    1.0000 </r>
       <r>   -5.4336    1.0000 </r>
       <r>   -5.3944    1.0000 </r>
       <r>   -5.2663    1.0000 </r>
       <r>   -5.2335    1.0000 </r>
       <r>   -5.1670    1.0000 </r>
       <r>   -5.1635    1.0000 </r>
       <r>   -5.1224    1.0000 </r>
       <r>   -5.0936    1.0000 </r>
       <r>   -5.0712    1.0000 </r>
       <r>   -5.0549    1.0000 </r>
       <r>   -4.9763    1.0000 </r>
       <r>   -4.9543    1.0000 </r>
       <r>   -4.9214    1.0000 </r>
       <r>   -4.8442    1.0000 </r>
       <r>   -4.8035    1.0000 </r>
       <r>   -4.7901    1.0000 </r>
       <r>   -4.7719    1.0000 </r>
       <r>   -4.6870    1.0000 </r>
       <r>   -4.6662    1.0000 </r>
       <r>   -4.6342    1.0000 </r>
       <r>   -4.6147    1.0000 </r>
       <r>   -4.5792    1.0000 </r>
       <r>   -4.5606    1.0000 </r>
       <r>   -4.5463    1.0000 </r>
       <r>   -4.5119    1.0000 </r>
       <r>   -4.4739    1.0000 </r>
       <r>   -4.4645    1.0000 </r>
       <r>   -4.4311    1.0000 </r>
       <r>   -4.4124    1.0000 </r>
       <r>   -4.4015    1.0000 </r>
       <r>   -4.3692    1.0000 </r>
       <r>   -4.3449    1.0000 </r>
       <r>   -4.3239    1.0000 </r>
       <r>   -4.2886    1.0000 </r>
       <r>   -4.2295    1.0000 </r>
       <r>   -4.1856    1.0000 </r>
       <r>   -4.1638    1.0000 </r>
       <r>   -4.1193    1.0000 </r>
       <r>   -4.1082    1.0000 </r>
       <r>   -4.0884    1.0000 </r>
       <r>   -4.0482    1.0000 </r>
       <r>   -4.0227    1.0000 </r>
       <r>   -4.0164    1.0000 </r>
       <r>   -3.9726    1.0000 </r>
       <r>   -3.9571    1.0000 </r>
       <r>   -3.9308    1.0000 </r>
       <r>   -3.9125    1.0000 </r>
       <r>   -3.8708    1.0000 </r>
       <r>   -3.8662    1.0000 </r>
       <r>   -3.8199    1.0000 </r>
       <r>   -3.8027    1.0000 </r>
       <r>   -3.7933    1.0000 </r>
       <r>   -3.7741    1.0000 </r>
       <r>   -3.7479    1.0000 </r>
       <r>   -3.7099    1.0000 </r>
       <r>   -3.6880    1.0000 </r>
       <r>   -3.6645    1.0000 </r>
       <r>   -3.5993    1.0000 </r>
       <r>   -3.5618    1.0000 </r>
       <r>   -3.5449    1.0000 </r>
       <r>   -3.5177    1.0000 </r>
       <r>   -3.4852    1.0000 </r>
       <r>   -3.4513    1.0000 </r>
       <r>   -3.3829    1.0000 </r>
       <r>   -0.8398    1.0000 </r>
       <r>   -0.8250    1.0000 </r>
       <r>   -0.7855    1.0000 </r>
       <r>   -0.7699    1.0000 </r>
       <r>   -0.7530    1.0000 </r>
       <r>   -0.7369    1.0001 </r>
       <r>   -0.6955    1.0002 </r>
       <r>   -0.6897    1.0002 </r>
       <r>   -0.6622    1.0004 </r>
       <r>   -0.6419    1.0006 </r>
       <r>   -0.6324    1.0008 </r>
       <r>   -0.6279    1.0009 </r>
       <r>   -0.6172    1.0011 </r>
       <r>   -0.6050    1.0015 </r>
       <r>   -0.5831    1.0023 </r>
       <r>   -0.5641    1.0034 </r>
       <r>   -0.5227    1.0071 </r>
       <r>   -0.4880    1.0122 </r>
       <r>   -0.4700    1.0156 </r>
       <r>   -0.4635    1.0169 </r>
       <r>   -0.4415    1.0217 </r>
       <r>   -0.4269    1.0251 </r>
       <r>   -0.4194    1.0268 </r>
       <r>   -0.4175    1.0273 </r>
       <r>   -0.4039    1.0302 </r>
       <r>   -0.3991    1.0311 </r>
       <r>   -0.3900    1.0328 </r>
       <r>   -0.3776    1.0345 </r>
       <r>   -0.3685    1.0352 </r>
       <r>   -0.3636    1.0354 </r>
       <r>   -0.3527    1.0352 </r>
       <r>   -0.3494    1.0349 </r>
       <r>   -0.3146    1.0245 </r>
       <r>   -0.2926    1.0085 </r>
       <r>   -0.2713    0.9841 </r>
       <r>   -0.2606    0.9680 </r>
       <r>   -0.2436    0.9368 </r>
       <r>   -0.2154    0.8691 </r>
       <r>   -0.2012    0.8275 </r>
       <r>   -0.1949    0.8076 </r>
       <r>   -0.1907    0.7938 </r>
       <r>   -0.1768    0.7455 </r>
       <r>   -0.1665    0.7070 </r>
       <r>   -0.1412    0.6068 </r>
       <r>   -0.1032    0.4468 </r>
       <r>   -0.0845    0.3694 </r>
       <r>   -0.0725    0.3214 </r>
       <r>   -0.0278    0.1647 </r>
       <r>   -0.0224    0.1485 </r>
       <r>    0.0288    0.0324 </r>
       <r>    0.0453    0.0086 </r>
       <r>    0.0664   -0.0133 </r>
       <r>    0.0901   -0.0279 </r>
       <r>    0.1235   -0.0353 </r>
       <r>    0.1408   -0.0350 </r>
       <r>    0.1706   -0.0305 </r>
       <r>    0.2089   -0.0220 </r>
       <r>    0.2250   -0.0184 </r>
       <r>    0.2452   -0.0142 </r>
       <r>    0.2996   -0.0062 </r>
       <r>    0.3918   -0.0010 </r>
       <r>    0.4064   -0.0007 </r>
       <r>    0.4625   -0.0002 </r>
       <r>    0.5014   -0.0001 </r>
       <r>    0.5469   -0.0000 </r>
       <r>    0.7094   -0.0000 </r>
       <r>    0.7218   -0.0000 </r>
       <r>    0.7428   -0.0000 </r>
       <r>    0.7721   -0.0000 </r>
       <r>    0.7984   -0.0000 </r>
       <r>    0.8777   -0.0000 </r>
       <r>    0.9845   -0.0000 </r>
       <r>    0.9998   -0.0000 </r>
       <r>    1.0217   -0.0000 </r>
       <r>    1.0847   -0.0000 </r>
       <r>    1.1056   -0.0000 </r>
       <r>    1.1370   -0.0000 </r>
       <r>    1.1839   -0.0000 </r>
       <r>    1.2484   -0.0000 </r>
       <r>    1.2940   -0.0000 </r>
       <r>    3.3508   -0.0000 </r>
       <r>    4.1798   -0.0000 </r>
       <r>    4.6523   -0.0000 </r>
       <r>    5.2674    0.0000 </r>
      </set>
     </set>
    </set>
   </array>
  </eigenvalues>
  <separator name="orbital magnetization" >
   <v name="MAGDIPOLOUT">      0.00000000      0.00000000      0.00000000</v>
  </separator>
  <dos>
   <i name="efermi">     -0.11577806 </i>
   <total>
    <array>
     <dimension dim="1">gridpoints</dimension>
     <dimension dim="2">spin</dimension>
     <field>energy</field>
     <field>total</field>
     <field>integrated</field>
     <set>
      <set comment="spin 1">
       <r>   -25.8603     0.0000     0.0000 </r>
       <r>   -25.7498     0.0000     0.0000 </r>
       <r>   -25.6394     0.0000     0.0000 </r>
       <r>   -25.5290    -0.0000    -0.0000 </r>
       <r>   -25.4185    -0.0000    -0.0000 </r>
       <r>   -25.3081    -0.0000    -0.0000 </r>
       <r>   -25.1977    -0.0000    -0.0000 </r>
       <r>   -25.0873    -0.0000    -0.0000 </r>
       <r>   -24.9768    -0.0000    -0.0000 </r>
       <r>   -24.8664    -0.0000    -0.0000 </r>
       <r>   -24.7560    -0.0000    -0.0000 </r>
       <r>   -24.6456    -0.0000    -0.0000 </r>
       <r>   -24.5351    -0.0002    -0.0000 </r>
       <r>   -24.4247    -0.0064    -0.0007 </r>
       <r>   -24.3143    -0.0856    -0.0102 </r>
       <r>   -24.2039    -0.5500    -0.0709 </r>
       <r>   -24.0934    -1.3316    -0.2180 </r>
       <r>   -23.9830     1.4320    -0.0598 </r>
       <r>   -23.8726    13.7266     1.4559 </r>
       <r>   -23.7622    31.3308     4.9157 </r>
       <r>   -23.6517    45.1345     9.8996 </r>
       <r>   -23.5413    51.2070    15.5542 </r>
       <r>   -23.4309    46.5467    20.6941 </r>
       <r>   -23.3205    43.0526    25.4482 </r>
       <r>   -23.2100    57.6529    31.8146 </r>
       <r>   -23.0996    81.1228    40.7726 </r>
       <r>   -22.9892    84.2916    50.0806 </r>
       <r>   -22.8788    60.6789    56.7811 </r>
       <r>   -22.7683    35.8754    60.7426 </r>
       <r>   -22.6579    20.3280    62.9874 </r>
       <r>   -22.5475     8.8454    63.9641 </r>
       <r>   -22.4371     1.5431    64.1345 </r>
       <r>   -22.3266    -0.6903    64.0583 </r>
       <r>   -22.2162    -0.4309    64.0107 </r>
       <r>   -22.1058    -0.0881    64.0010 </r>
       <r>   -21.9954    -0.0084    64.0000 </r>
       <r>   -21.8849    -0.0004    64.0000 </r>
       <r>   -21.7745    -0.0000    64.0000 </r>
       <r>   -21.6641    -0.0000    64.0000 </r>
       <r>   -21.5537    -0.0000    64.0000 </r>
       <r>   -21.4432    -0.0000    64.0000 </r>
       <r>   -21.3328    -0.0000    64.0000 </r>
       <r>   -21.2224     0.0000    64.0000 </r>
       <r>   -21.1120     0.0000    64.0000 </r>
       <r>   -21.0015     0.0000    64.0000 </r>
       <r>   -20.8911     0.0000    64.0000 </r>
       <r>   -20.7807     0.0000    64.0000 </r>
       <r>   -20.6703    -0.0000    64.0000 </r>
       <r>   -20.5598    -0.0000    64.0000 </r>
       <r>   -20.4494    -0.0000    64.0000 </r>
       <r>   -20.3390    -0.0000    64.0000 </r>
       <r>   -20.2286    -0.0000    64.0000 </r>
       <r>   -20.1181    -0.0000    64.0000 </r>
       <r>   -20.0077    -0.0000    64.0000 </r>
       <r>   -19.8973    -0.0000    64.0000 </r>
       <r>   -19.7869    -0.0000    64.0000 </r>
       <r>   -19.6764    -0.0001    64.0000 </r>
       <r>   -19.5660    -0.0026    63.9997 </r>
       <r>   -19.4556    -0.0357    63.9958 </r>
       <r>   -19.3451    -0.2329    63.9700 </r>
       <r>   -19.2347    -0.5686    63.9073 </r>
       <r>   -19.1243     0.4968    63.9621 </r>
       <r>   -19.0139     5.4353    64.5623 </r>
       <r>   -18.9034    14.4811    66.1614 </r>
       <r>   -18.7930    23.8260    68.7924 </r>
       <r>   -18.6826    21.9600    71.2173 </r>
       <r>   -18.5722     8.5248    72.1587 </r>
       <r>   -18.4617    -0.1769    72.1392 </r>
       <r>   -18.3513    -0.9795    72.0310 </r>
       <r>   -18.2409    -0.2523    72.0032 </r>
       <r>   -18.1305    -0.0272    72.0002 </r>
       <r>   -18.0200    -0.0014    72.0000 </r>
       <r>   -17.9096    -0.0000    72.0000 </r>
       <r>   -17.7992    -0.0000    72.0000 </r>
       <r>   -17.6888    -0.0000    72.0000 </r>
       <r>   -17.5783    -0.0000    72.0000 </r>
       <r>   -17.4679    -0.0000    72.0000 </r>
       <r>   -17.3575     0.0000    72.0000 </r>
       <r>   -17.2471     0.0000    72.0000 </r>
       <r>   -17.1366     0.0000    72.0000 </r>
       <r>   -17.0262     0.0000    72.0000 </r>
       <r>   -16.9158     0.0000    72.0000 </r>
       <r>   -16.8054     0.0000    72.0000 </r>
       <r>   -16.6949     0.0000    72.0000 </r>
       <r>   -16.5845     0.0000    72.0000 </r>
       <r>   -16.4741     0.0000    72.0000 </r>
       <r>   -16.3637     0.0000    72.0000 </r>
       <r>   -16.2532     0.0000    72.0000 </r>
       <r>   -16.1428     0.0000    72.0000 </r>
       <r>   -16.0324     0.0000    72.0000 </r>
       <r>   -15.9220     0.0000    72.0000 </r>
       <r>   -15.8115     0.0000    72.0000 </r>
       <r>   -15.7011     0.0000    72.0000 </r>
       <r>   -15.5907     0.0000    72.0000 </r>
       <r>   -15.4803     0.0000    72.0000 </r>
       <r>   -15.3698     0.0000    72.0000 </r>
       <r>   -15.2594     0.0000    72.0000 </r>
       <r>   -15.1490     0.0000    72.0000 </r>
       <r>   -15.0386     0.0000    72.0000 </r>
       <r>   -14.9281     0.0000    72.0000 </r>
       <r>   -14.8177     0.0000    72.0000 </r>
       <r>   -14.7073     0.0000    72.0000 </r>
       <r>   -14.5969     0.0000    72.0000 </r>
       <r>   -14.4864     0.0000    72.0000 </r>
       <r>   -14.3760     0.0000    72.0000 </r>
       <r>   -14.2656     0.0000    72.0000 </r>
       <r>   -14.1552     0.0000    72.0000 </r>
       <r>   -14.0447     0.0000    72.0000 </r>
       <r>   -13.9343     0.0000    72.0000 </r>
       <r>   -13.8239     0.0000    72.0000 </r>
       <r>   -13.7135     0.0000    72.0000 </r>
       <r>   -13.6030     0.0000    72.0000 </r>
       <r>   -13.4926     0.0000    72.0000 </r>
       <r>   -13.3822     0.0000    72.0000 </r>
       <r>   -13.2717     0.0000    72.0000 </r>
       <r>   -13.1613     0.0000    72.0000 </r>
       <r>   -13.0509     0.0000    72.0000 </r>
       <r>   -12.9405     0.0000    72.0000 </r>
       <r>   -12.8300     0.0000    72.0000 </r>
       <r>   -12.7196     0.0000    72.0000 </r>
       <r>   -12.6092     0.0000    72.0000 </r>
       <r>   -12.4988     0.0000    72.0000 </r>
       <r>   -12.3883     0.0000    72.0000 </r>
       <r>   -12.2779     0.0000    72.0000 </r>
       <r>   -12.1675     0.0000    72.0000 </r>
       <r>   -12.0571     0.0000    72.0000 </r>
       <r>   -11.9466     0.0000    72.0000 </r>
       <r>   -11.8362     0.0000    72.0000 </r>
       <r>   -11.7258     0.0000    72.0000 </r>
       <r>   -11.6154     0.0000    72.0000 </r>
       <r>   -11.5049     0.0000    72.0000 </r>
       <r>   -11.3945     0.0000    72.0000 </r>
       <r>   -11.2841     0.0000    72.0000 </r>
       <r>   -11.1737     0.0000    72.0000 </r>
       <r>   -11.0632     0.0000    72.0000 </r>
       <r>   -10.9528     0.0000    72.0000 </r>
       <r>   -10.8424     0.0000    72.0000 </r>
       <r>   -10.7320     0.0000    72.0000 </r>
       <r>   -10.6215     0.0000    72.0000 </r>
       <r>   -10.5111     0.0000    72.0000 </r>
       <r>   -10.4007     0.0000    72.0000 </r>
       <r>   -10.2903     0.0000    72.0000 </r>
       <r>   -10.1798     0.0000    72.0000 </r>
       <r>   -10.0694     0.0000    72.0000 </r>
       <r>    -9.9590     0.0000    72.0000 </r>
       <r>    -9.8486     0.0000    72.0000 </r>
       <r>    -9.7381     0.0000    72.0000 </r>
       <r>    -9.6277     0.0000    72.0000 </r>
       <r>    -9.5173     0.0000    72.0000 </r>
       <r>    -9.4069     0.0000    72.0000 </r>
       <r>    -9.2964     0.0000    72.0000 </r>
       <r>    -9.1860     0.0000    72.0000 </r>
       <r>    -9.0756     0.0000    72.0000 </r>
       <r>    -8.9652     0.0000    72.0000 </r>
       <r>    -8.8547     0.0000    72.0000 </r>
       <r>    -8.7443     0.0000    72.0000 </r>
       <r>    -8.6339    -0.0000    72.0000 </r>
       <r>    -8.5235    -0.0000    72.0000 </r>
       <r>    -8.4130    -0.0000    72.0000 </r>
       <r>    -8.3026    -0.0000    72.0000 </r>
       <r>    -8.1922    -0.0000    72.0000 </r>
       <r>    -8.0818    -0.0000    72.0000 </r>
       <r>    -7.9713    -0.0000    72.0000 </r>
       <r>    -7.8609    -0.0000    72.0000 </r>
       <r>    -7.7505    -0.0000    72.0000 </r>
       <r>    -7.6401    -0.0005    71.9999 </r>
       <r>    -7.5296    -0.0113    71.9987 </r>
       <r>    -7.4192    -0.1306    71.9843 </r>
       <r>    -7.3088    -0.7012    71.9068 </r>
       <r>    -7.1983    -1.1703    71.7776 </r>
       <r>    -7.0879     3.1872    72.1296 </r>
       <r>    -6.9775    16.6355    73.9665 </r>
       <r>    -6.8671    33.7088    77.6889 </r>
       <r>    -6.7566    44.2655    82.5769 </r>
       <r>    -6.6462    36.2216    86.5767 </r>
       <r>    -6.5358    17.5752    88.5174 </r>
       <r>    -6.4254    13.3443    89.9910 </r>
       <r>    -6.3149    24.1288    92.6554 </r>
       <r>    -6.2045    44.2722    97.5442 </r>
       <r>    -6.0941    72.2992   105.5279 </r>
       <r>    -5.9837    93.9761   115.9052 </r>
       <r>    -5.8732    96.1148   126.5187 </r>
       <r>    -5.7628    83.2254   135.7089 </r>
       <r>    -5.6524    76.3074   144.1352 </r>
       <r>    -5.5420    77.3420   152.6757 </r>
       <r>    -5.4315    64.3188   159.7782 </r>
       <r>    -5.3211    41.5753   164.3691 </r>
       <r>    -5.2107    38.9475   168.6699 </r>
       <r>    -5.1003    53.2524   174.5504 </r>
       <r>    -4.9898    56.3177   180.7693 </r>
       <r>    -4.8794    49.3624   186.2201 </r>
       <r>    -4.7690    48.9851   191.6293 </r>
       <r>    -4.6586    58.2142   198.0577 </r>
       <r>    -4.5481    72.5452   206.0685 </r>
       <r>    -4.4377    81.3207   215.0484 </r>
       <r>    -4.3273    74.9169   223.3211 </r>
       <r>    -4.2169    62.3925   230.2108 </r>
       <r>    -4.1064    63.8605   237.2627 </r>
       <r>    -3.9960    75.6860   245.6203 </r>
       <r>    -3.8856    83.1931   254.8070 </r>
       <r>    -3.7752    82.5689   263.9247 </r>
       <r>    -3.6647    73.2385   272.0121 </r>
       <r>    -3.5543    62.4471   278.9078 </r>
       <r>    -3.4439    50.2438   284.4560 </r>
       <r>    -3.3335    28.0193   287.5500 </r>
       <r>    -3.2230     6.7862   288.2994 </r>
       <r>    -3.1126    -1.2288   288.1637 </r>
       <r>    -3.0022    -1.1667   288.0349 </r>
       <r>    -2.8918    -0.2819   288.0038 </r>
       <r>    -2.7813    -0.0321   288.0002 </r>
       <r>    -2.6709    -0.0019   288.0000 </r>
       <r>    -2.5605    -0.0001   288.0000 </r>
       <r>    -2.4501    -0.0000   288.0000 </r>
       <r>    -2.3396    -0.0000   288.0000 </r>
       <r>    -2.2292    -0.0000   288.0000 </r>
       <r>    -2.1188    -0.0000   288.0000 </r>
       <r>    -2.0084    -0.0000   288.0000 </r>
       <r>    -1.8979    -0.0000   288.0000 </r>
       <r>    -1.7875    -0.0000   288.0000 </r>
       <r>    -1.6771    -0.0000   288.0000 </r>
       <r>    -1.5667    -0.0001   288.0000 </r>
       <r>    -1.4562    -0.0022   287.9998 </r>
       <r>    -1.3458    -0.0418   287.9951 </r>
       <r>    -1.2354    -0.4157   287.9492 </r>
       <r>    -1.1249    -1.9496   287.7340 </r>
       <r>    -1.0145    -2.7042   287.4353 </r>
       <r>    -0.9041     9.8101   288.5186 </r>
       <r>    -0.7937    46.5687   293.6610 </r>
       <r>    -0.6832    88.4182   303.4246 </r>
       <r>    -0.5728   110.4039   315.6160 </r>
       <r>    -0.4624   127.2626   329.6690 </r>
       <r>    -0.3520   147.0682   345.9091 </r>
       <r>    -0.2415   142.3081   361.6236 </r>
       <r>    -0.1311   116.2522   374.4608 </r>
       <r>    -0.0207    91.0243   384.5122 </r>
       <r>     0.0897    77.9256   393.1171 </r>
       <r>     0.2002    69.8484   400.8302 </r>
       <r>     0.3106    55.2892   406.9355 </r>
       <r>     0.4210    42.3029   411.6068 </r>
       <r>     0.5314    34.8043   415.4501 </r>
       <r>     0.6419    31.6796   418.9483 </r>
       <r>     0.7523    38.7472   423.2270 </r>
       <r>     0.8627    42.2287   427.8901 </r>
       <r>     0.9731    41.1555   432.4348 </r>
       <r>     1.0836    47.7815   437.7110 </r>
       <r>     1.1940    48.1457   443.0276 </r>
       <r>     1.3044    33.0145   446.6732 </r>
       <r>     1.4148    12.9824   448.1068 </r>
       <r>     1.5253     0.9657   448.2134 </r>
       <r>     1.6357    -1.3291   448.0667 </r>
       <r>     1.7461    -0.5178   448.0095 </r>
       <r>     1.8565    -0.0797   448.0007 </r>
       <r>     1.9670    -0.0060   448.0000 </r>
       <r>     2.0774    -0.0002   448.0000 </r>
       <r>     2.1878    -0.0000   448.0000 </r>
       <r>     2.2982    -0.0000   448.0000 </r>
       <r>     2.4087    -0.0000   448.0000 </r>
       <r>     2.5191    -0.0000   448.0000 </r>
       <r>     2.6295    -0.0000   448.0000 </r>
       <r>     2.7399    -0.0012   447.9999 </r>
       <r>     2.8504    -0.0195   447.9977 </r>
       <r>     2.9608    -0.1488   447.9813 </r>
       <r>     3.0712    -0.4072   447.9363 </r>
       <r>     3.1816     0.5609   447.9982 </r>
       <r>     3.2921     4.7772   448.5258 </r>
       <r>     3.4025     8.1118   449.4215 </r>
       <r>     3.5129     5.1059   449.9853 </r>
       <r>     3.6233     0.7259   450.0655 </r>
       <r>     3.7338    -0.4685   450.0138 </r>
       <r>     3.8442    -0.4538   449.9637 </r>
       <r>     3.9546    -0.2805   449.9327 </r>
       <r>     4.0650     2.2756   450.1840 </r>
       <r>     4.1755     7.0238   450.9596 </r>
       <r>     4.2859     7.1245   451.7463 </r>
       <r>     4.3963     2.2376   451.9934 </r>
       <r>     4.5067     1.0083   452.1047 </r>
       <r>     4.6172     5.5400   452.7165 </r>
       <r>     4.7276     7.9114   453.5901 </r>
       <r>     4.8380     3.9161   454.0225 </r>
       <r>     4.9485    -0.1102   454.0104 </r>
       <r>     5.0589    -0.4891   453.9563 </r>
       <r>     5.1693     2.8584   454.2720 </r>
       <r>     5.2797     7.5374   455.1043 </r>
       <r>     5.3902     6.7733   455.8523 </r>
       <r>     5.5006     1.9697   456.0698 </r>
       <r>     5.6110    -0.3100   456.0355 </r>
       <r>     5.7214    -0.2668   456.0061 </r>
       <r>     5.8319    -0.0506   456.0005 </r>
       <r>     5.9423    -0.0042   456.0000 </r>
       <r>     6.0527    -0.0002   456.0000 </r>
       <r>     6.1631    -0.0000   456.0000 </r>
       <r>     6.2736    -0.0000   456.0000 </r>
       <r>     6.3840    -0.0000   456.0000 </r>
       <r>     6.4944    -0.0000   456.0000 </r>
       <r>     6.6048     0.0000   456.0000 </r>
       <r>     6.7153     0.0000   456.0000 </r>
       <r>     6.8257     0.0000   456.0000 </r>
       <r>     6.9361     0.0000   456.0000 </r>
       <r>     7.0465     0.0000   456.0000 </r>
       <r>     7.1570     0.0000   456.0000 </r>
       <r>     7.2674     0.0000   456.0000 </r>
      </set>
     </set>
    </array>
   </total>
  </dos>
 </calculation>
 <structure name="finalpos" >
  <crystal>
   <varray name="basis" >
    <v>       9.40119100       0.00000000      -0.08412900 </v>
    <v>       0.00000000       5.35946700       0.00000000 </v>
    <v>       0.00000000       0.00000000      14.95565100 </v>
   </varray>
   <i name="volume">    753.54605297 </i>
   <varray name="rec_basis" >
    <v>       0.10636950       0.00000000       0.00000000 </v>
    <v>       0.00000000       0.18658572       0.00000000 </v>
    <v>       0.00059835       0.00000000       0.06686436 </v>
   </varray>
  </crystal>
  <varray name="positions" >
   <v>       0.16411200       0.48397600       0.17995900 </v>
   <v>       0.16411200       0.51602400       0.67995900 </v>
   <v>       0.66411200       0.98397600       0.17995900 </v>
   <v>       0.66411200       0.01602400       0.67995900 </v>
   <v>       0.17916100       0.47285200       0.97303200 </v>
   <v>       0.18437900       0.52714800       0.47303200 </v>
   <v>       0.67786700       0.97285200       0.97303200 </v>
   <v>       0.67533200       0.03142100       0.47303200 </v>
   <v>       0.33162900       0.02941400       0.82240100 </v>
   <v>       0.33162900       0.97058600       0.32240100 </v>
   <v>       0.83162900       0.53834700       0.82240100 </v>
   <v>       0.83162900       0.47058600       0.32240100 </v>
   <v>       0.33361900       0.00432000       0.51711500 </v>
   <v>       0.33361900       0.99646400       0.01711500 </v>
   <v>       0.83361900       0.50432000       0.51711500 </v>
   <v>       0.83361900       0.49568000       0.01711500 </v>
   <v>       0.30926400       0.26740800       0.92544800 </v>
   <v>       0.30926400       0.73259200       0.42544800 </v>
   <v>       0.81265600       0.76740800       0.92544800 </v>
   <v>       0.80926400       0.23259200       0.42544800 </v>
   <v>       0.00386100       0.36884200       0.24394900 </v>
   <v>       0.00386100       0.63115800       0.74394900 </v>
   <v>       0.50386100       0.86884200       0.24394900 </v>
   <v>       0.50386100       0.13115800       0.74394900 </v>
   <v>       0.02591400       0.39537700       0.57915900 </v>
   <v>       0.02591400       0.60462300       0.07915900 </v>
   <v>       0.52591400       0.89537700       0.57915900 </v>
   <v>       0.52591400       0.10462300       0.07915900 </v>
   <v>       0.17315400       0.21094800       0.08350500 </v>
   <v>       0.17611800       0.78583000       0.58350500 </v>
   <v>       0.67611800       0.71417000       0.08350500 </v>
   <v>       0.67611800       0.28583000       0.58725100 </v>
   <v>       0.18147400       0.20344500       0.73253500 </v>
   <v>       0.18147400       0.79655500       0.23945400 </v>
   <v>       0.68147400       0.70344500       0.73945400 </v>
   <v>       0.69140900       0.29655500       0.23945400 </v>
   <v>       0.18900300       0.20186000       0.42366300 </v>
   <v>       0.18900300       0.79814000       0.92366300 </v>
   <v>       0.68900300       0.70186000       0.42366300 </v>
   <v>       0.69703800       0.29814000       0.92366300 </v>
   <v>       0.29347700       0.34686800       0.57827500 </v>
   <v>       0.29347700       0.65313200       0.07827500 </v>
   <v>       0.79347700       0.84686800       0.57827500 </v>
   <v>       0.79347700       0.15313200       0.07827500 </v>
   <v>       0.30310600       0.30561100       0.24801900 </v>
   <v>       0.30310600       0.69438900       0.74801900 </v>
   <v>       0.80010600       0.80561100       0.24717200 </v>
   <v>       0.80310600       0.19438900       0.74801900 </v>
   <v>       0.50000600       0.13464800       0.42295500 </v>
   <v>       0.48536100       0.86358800       0.92295500 </v>
   <v>       0.99071400       0.63464800       0.42295500 </v>
   <v>       0.99175700       0.36535200       0.92295500 </v>
  </varray>
 </structure>
</modeling>
