<?xml version="1.0" encoding="ISO-8859-1"?>
<modeling>
 <generator>
  <i name="program" type="string">vasp </i>
  <i name="version" type="string">5.3.5  </i>
  <i name="subversion" type="string">31Mar14 (build Aug 29 2014 19:41:47) complex                          parallel </i>
  <i name="platform" type="string">LinuxIFC </i>
  <i name="date" type="string">2019 04 11 </i>
  <i name="time" type="string">12:55:32 </i>
 </generator>
 <incar>
  <i type="string" name="SYSTEM"> Fe4OF7_var_15</i>
  <i type="int" name="ISTART">     0</i>
  <i type="string" name="PREC">normal</i>
  <i type="string" name="ALGO"> VeryFast</i>
  <i type="int" name="ISPIN">     1</i>
  <i type="int" name="ICHARG">     2</i>
  <i type="int" name="NELM">   300</i>
  <i type="int" name="ISYM">     0</i>
  <i type="logical" name="LWAVE"> F  </i>
  <i type="int" name="NELM">   300</i>
 </incar>
 <kpoints>
  <generation param="Gamma">
   <v type="int" name="divisions">       1        1        1 </v>
   <v name="usershift">      0.00000000       0.00000000       0.00000000 </v>
   <v name="genvec1">      1.00000000       0.00000000       0.00000000 </v>
   <v name="genvec2">      0.00000000       1.00000000       0.00000000 </v>
   <v name="genvec3">      0.00000000       0.00000000       1.00000000 </v>
   <v name="shift">      0.00000000       0.00000000       0.00000000 </v>
  </generation>
  <varray name="kpointlist" >
   <v>       0.00000000       0.00000000       0.00000000 </v>
  </varray>
  <varray name="weights" >
   <v>       1.00000000 </v>
  </varray>
 </kpoints>
 <parameters>
  <separator name="general" >
   <i type="string" name="SYSTEM">Fe4OF7_var_15</i>
   <i type="logical" name="LCOMPAT"> F  </i>
  </separator>
  <separator name="electronic" >
   <i type="string" name="PREC">normal</i>
   <i name="ENMAX">    400.00000000</i>
   <i name="ENAUG">    613.61400000</i>
   <i name="EDIFF">      0.00010000</i>
   <i type="int" name="IALGO">    48</i>
   <i type="int" name="IWAVPR">    10</i>
   <i type="int" name="NBANDS">   104</i>
   <i name="NELECT">    174.00000000</i>
   <i type="int" name="TURBO">     0</i>
   <i type="int" name="IRESTART">     0</i>
   <i type="int" name="NREBOOT">     0</i>
   <i type="int" name="NMIN">     0</i>
   <i name="EREF">      0.00000000</i>
   <separator name="electronic smearing" >
    <i type="int" name="ISMEAR">     1</i>
    <i name="SIGMA">      0.20000000</i>
    <i name="KSPACING">      0.50000000</i>
    <i type="logical" name="KGAMMA"> T  </i>
   </separator>
   <separator name="electronic projectors" >
    <i type="logical" name="LREAL"> F  </i>
    <v name="ROPT">      0.00000000      0.00000000      0.00000000</v>
    <i type="int" name="LMAXPAW">  -100</i>
    <i type="int" name="LMAXMIX">     2</i>
    <i type="logical" name="NLSPLINE"> F  </i>
   </separator>
   <separator name="electronic startup" >
    <i type="int" name="ISTART">     0</i>
    <i type="int" name="ICHARG">     2</i>
    <i type="int" name="INIWAV">     1</i>
   </separator>
   <separator name="electronic spin" >
    <i type="int" name="ISPIN">     1</i>
    <i type="logical" name="LNONCOLLINEAR"> F  </i>
    <v name="MAGMOM">      1.00000000      1.00000000      1.00000000      1.00000000      1.00000000      1.00000000      1.00000000      1.00000000      1.00000000      1.00000000      1.00000000      1.00000000      1.00000000      1.00000000      1.00000000      1.00000000      1.00000000      1.00000000      1.00000000      1.00000000
      1.00000000      1.00000000      1.00000000      1.00000000</v>
    <i name="NUPDOWN">     -1.00000000</i>
    <i type="logical" name="LSORBIT"> F  </i>
    <v name="SAXIS">      0.00000000      0.00000000      1.00000000</v>
    <i type="logical" name="LSPIRAL"> F  </i>
    <v name="QSPIRAL">      0.00000000      0.00000000      0.00000000</v>
    <i type="logical" name="LZEROZ"> F  </i>
   </separator>
   <separator name="electronic exchange-correlation" >
    <i type="logical" name="LASPH"> F  </i>
    <i type="logical" name="LMETAGGA"> F  </i>
   </separator>
   <separator name="electronic convergence" >
    <i type="int" name="NELM">   300</i>
    <i type="int" name="NELMDL">   -12</i>
    <i type="int" name="NELMIN">     2</i>
    <i name="ENINI">    400.00000000</i>
    <separator name="electronic convergence detail" >
     <i type="logical" name="LDIAG"> T  </i>
     <i type="logical" name="LSUBROT"> F  </i>
     <i name="WEIMIN">      0.00000000</i>
     <i name="EBREAK">      0.00000024</i>
     <i name="DEPER">      0.30000000</i>
     <i type="int" name="NRMM">     4</i>
     <i name="TIME">      0.40000000</i>
    </separator>
   </separator>
   <separator name="electronic mixer" >
    <i name="AMIX">      0.40000000</i>
    <i name="BMIX">      1.00000000</i>
    <i name="AMIN">      0.10000000</i>
    <i name="AMIX_MAG">      1.60000000</i>
    <i name="BMIX_MAG">      1.00000000</i>
    <separator name="electronic mixer details" >
     <i type="int" name="IMIX">     4</i>
     <i type="int" name="MAXMIX">   -45</i>
     <i name="WC">    100.00000000</i>
     <i type="int" name="INIMIX">     1</i>
     <i type="int" name="MIXPRE">     1</i>
     <i type="int" name="MREMOVE">     5</i>
    </separator>
   </separator>
   <separator name="electronic dipolcorrection" >
    <i type="logical" name="LDIPOL"> F  </i>
    <i type="logical" name="LMONO"> F  </i>
    <i type="int" name="IDIPOL">     0</i>
    <i name="EPSILON">      1.00000000</i>
    <v name="DIPOL">   -100.00000000   -100.00000000   -100.00000000</v>
    <i name="EFIELD">      0.00000000</i>
   </separator>
  </separator>
  <separator name="grids" >
   <i type="int" name="NGX">    28</i>
   <i type="int" name="NGY">    24</i>
   <i type="int" name="NGZ">    54</i>
   <i type="int" name="NGXF">    56</i>
   <i type="int" name="NGYF">    48</i>
   <i type="int" name="NGZF">   108</i>
   <i type="logical" name="ADDGRID"> F  </i>
  </separator>
  <separator name="ionic" >
   <i type="int" name="NSW">     0</i>
   <i type="int" name="IBRION">    -1</i>
   <i type="int" name="ISIF">     2</i>
   <i name="PSTRESS">      0.00000000</i>
   <i name="EDIFFG">      0.00100000</i>
   <i type="int" name="NFREE">     0</i>
   <i name="POTIM">      0.50000000</i>
   <i name="SMASS">     -3.00000000</i>
   <i name="SCALEE">      1.00000000</i>
  </separator>
  <separator name="ionic md" >
   <i name="TEBEG">      0.00010000</i>
   <i name="TEEND">      0.00010000</i>
   <i type="int" name="NBLOCK">     1</i>
   <i type="int" name="KBLOCK">     1</i>
   <i type="int" name="NPACO">   256</i>
   <i name="APACO">     16.00000000</i>
  </separator>
  <separator name="symmetry" >
   <i type="int" name="ISYM">     0</i>
   <i name="SYMPREC">      0.00001000</i>
  </separator>
  <separator name="dos" >
   <i type="logical" name="LORBIT"> F  </i>
   <v name="RWIGS">     -1.00000000     -1.00000000     -1.00000000</v>
   <i type="int" name="NEDOS">   301</i>
   <i name="EMIN">     10.00000000</i>
   <i name="EMAX">    -10.00000000</i>
   <i name="EFERMI">      0.00000000</i>
  </separator>
  <separator name="writing" >
   <i type="int" name="NWRITE">     2</i>
   <i type="logical" name="LWAVE"> F  </i>
   <i type="logical" name="LCHARG"> T  </i>
   <i type="logical" name="LPARD"> F  </i>
   <i type="logical" name="LVTOT"> F  </i>
   <i type="logical" name="LVHAR"> F  </i>
   <i type="logical" name="LELF"> F  </i>
   <i type="logical" name="LOPTICS"> F  </i>
   <v name="STM">      0.00000000      0.00000000      0.00000000      0.00000000      0.00000000      0.00000000      0.00000000</v>
  </separator>
  <separator name="performance" >
   <i type="int" name="NPAR">     4</i>
   <i type="int" name="NSIM">     4</i>
   <i type="int" name="NBLK">    -1</i>
   <i type="logical" name="LPLANE"> T  </i>
   <i type="logical" name="LSCALAPACK"> T  </i>
   <i type="logical" name="LSCAAWARE"> F  </i>
   <i type="logical" name="LSCALU"> F  </i>
   <i type="logical" name="LASYNC"> F  </i>
   <i type="logical" name="LORBITALREAL"> F  </i>
  </separator>
  <separator name="miscellaneous" >
   <i type="int" name="IDIOT">     3</i>
   <i type="logical" name="LMUSIC"> F  </i>
   <v name="POMASS">     55.84700000     16.00000000     18.99800000</v>
   <v name="DARWINR">      0.00000000      0.00000000      0.00000000</v>
   <v name="DARWINV">      1.00000000      1.00000000      1.00000000</v>
   <i type="logical" name="LCORR"> T  </i>
  </separator>
  <i type="logical" name="GGA_COMPAT"> T  </i>
  <i type="logical" name="LBERRY"> F  </i>
  <i type="int" name="ICORELEVEL">     0</i>
  <i type="logical" name="LDAU"> F  </i>
  <i type="int" name="I_CONSTRAINED_M">     0</i>
  <separator name="electronic exchange-correlation" >
   <i type="string" name="GGA">--</i>
   <i type="int" name="VOSKOWN">     0</i>
   <i type="logical" name="LHFCALC"> F  </i>
   <i type="string" name="PRECFOCK"></i>
   <i type="logical" name="LSYMGRAD"> F  </i>
   <i type="logical" name="LHFONE"> F  </i>
   <i type="logical" name="LRHFCALC"> F  </i>
   <i type="logical" name="LTHOMAS"> F  </i>
   <i type="logical" name="LMODELHF"> F  </i>
   <i name="ENCUT4O">     -1.00000000</i>
   <i type="int" name="EXXOEP">     0</i>
   <i type="int" name="FOURORBIT">     0</i>
   <i name="AEXX">      0.00000000</i>
   <i name="HFALPHA">      0.00000000</i>
   <i name="MCALPHA">      0.00000000</i>
   <i name="ALDAX">      1.00000000</i>
   <i name="AGGAX">      1.00000000</i>
   <i name="ALDAC">      1.00000000</i>
   <i name="AGGAC">      1.00000000</i>
   <i type="int" name="NKREDX">     1</i>
   <i type="int" name="NKREDY">     1</i>
   <i type="int" name="NKREDZ">     1</i>
   <i type="logical" name="SHIFTRED"> F  </i>
   <i type="logical" name="ODDONLY"> F  </i>
   <i type="logical" name="EVENONLY"> F  </i>
   <i type="int" name="LMAXFOCK">     0</i>
   <i type="int" name="NMAXFOCKAE">     0</i>
   <i type="logical" name="LFOCKAEDFT"> F  </i>
   <i name="HFSCREEN">      0.00000000</i>
   <i name="HFSCREENC">      0.00000000</i>
   <i type="int" name="NBANDSGWLOW">     0</i>
  </separator>
  <separator name="vdW DFT" >
   <i type="logical" name="LUSE_VDW"> F  </i>
   <i name="Zab_VDW">     -0.84910000</i>
   <i name="PARAM1">      0.12340000</i>
   <i name="PARAM2">      1.00000000</i>
   <i name="PARAM3">      0.00000000</i>
  </separator>
  <separator name="model GW" >
   <i type="int" name="MODEL_GW">     0</i>
   <i name="MODEL_EPS0">      7.39660439</i>
   <i name="MODEL_ALPHA">      1.00000000</i>
  </separator>
  <separator name="linear response parameters" >
   <i type="logical" name="LEPSILON"> F  </i>
   <i type="logical" name="LRPA"> F  </i>
   <i type="logical" name="LNABLA"> F  </i>
   <i type="logical" name="LVEL"> F  </i>
   <i type="int" name="KINTER">     0</i>
   <i name="CSHIFT">      0.10000000</i>
   <i name="OMEGAMAX">     -1.00000000</i>
   <i name="DEG_THRESHOLD">      0.00200000</i>
  </separator>
  <separator name="orbital magnetization" >
   <i type="logical" name="NUCIND"> F  </i>
   <v name="MAGPOS">      0.00000000      0.00000000      0.00000000</v>
   <i type="logical" name="LNICSALL"> T  </i>
   <i type="logical" name="ORBITALMAG"> F  </i>
   <i type="logical" name="LMAGBLOCH"> F  </i>
   <i type="logical" name="LCHIMAG"> F  </i>
   <i type="logical" name="LGAUGE"> T  </i>
   <i type="int" name="MAGATOM">     0</i>
   <v name="MAGDIPOL">      0.00000000      0.00000000      0.00000000</v>
   <v name="AVECCONST">      0.00000000      0.00000000      0.00000000</v>
  </separator>
  <separator name="response functions" >
   <i type="logical" name="LADDER"> F  </i>
   <i type="logical" name="LFXC"> F  </i>
   <i type="logical" name="LHARTREE"> T  </i>
   <i type="int" name="IBSE">     0</i>
   <i type="logical" name="LTCTE"> F  </i>
   <i type="logical" name="LTETE"> F  </i>
   <i type="logical" name="LTRIPLET"> F  </i>
   <i type="logical" name="LFXCEPS"> F  </i>
   <i type="logical" name="LFXHEG"> F  </i>
   <i type="logical" name="L2ORDER"> F  </i>
   <i type="logical" name="LUSEW"> F  </i>
   <i name="ENCUTGW">     -2.00000000</i>
   <i name="ENCUTGWSOFT">     -2.00000000</i>
   <i name="ENCUTLF">     -1.00000000</i>
   <i type="int" name="LMAXMP2">    -1</i>
   <i name="SCISSOR">      0.00000000</i>
   <i type="int" name="NOMEGA">     0</i>
   <i type="int" name="NOMEGAR">     0</i>
   <i type="int" name="NBANDSGW">    -1</i>
   <i type="int" name="NBANDSO">    -1</i>
   <i type="int" name="NBANDSV">    -1</i>
   <i type="int" name="NELM">   300</i>
   <i type="int" name="DIM">     3</i>
   <i type="int" name="ANTIRES">     0</i>
   <i name="OMEGAMAX">    -30.00000000</i>
   <i name="OMEGAMIN">    -30.00000000</i>
   <i name="OMEGATL">   -200.00000000</i>
   <i type="int" name="OMEGAGRID">     0</i>
   <i name="CSHIFT">     -0.10000000</i>
   <i type="logical" name="SELFENERGY"> F  </i>
   <i type="logical" name="LSPECTRAL"> F  </i>
   <i type="logical" name="ODDONLYGW"> F  </i>
   <i type="logical" name="EVENONLYGW"> F  </i>
   <i type="int" name="NKREDLFX">     1</i>
   <i type="int" name="NKREDLFY">     1</i>
   <i type="int" name="NKREDLFZ">     1</i>
   <i type="int" name="MAXMEM">  1800</i>
   <i type="int" name="TELESCOPE">     0</i>
   <i type="int" name="TAUPAR">     1</i>
  </separator>
  <separator name="External order field" >
   <i name="OFIELD_KAPPA">      0.00000000</i>
   <v name="OFIELD_K">      0.00000000      0.00000000      0.00000000</v>
   <i name="OFIELD_Q6_NEAR">      0.00000000</i>
   <i name="OFIELD_Q6_FAR">      0.00000000</i>
   <i name="OFIELD_A">      0.00000000</i>
  </separator>
 </parameters>
 <atominfo>
  <atoms>      24 </atoms>
  <types>       3 </types>
  <array name="atoms" >
   <dimension dim="1">ion</dimension>
   <field type="string">element</field>
   <field type="int">atomtype</field>
   <set>
    <rc><c>Fe</c><c>   1</c></rc>
    <rc><c>Fe</c><c>   1</c></rc>
    <rc><c>Fe</c><c>   1</c></rc>
    <rc><c>Fe</c><c>   1</c></rc>
    <rc><c>Fe</c><c>   1</c></rc>
    <rc><c>Fe</c><c>   1</c></rc>
    <rc><c>Fe</c><c>   1</c></rc>
    <rc><c>Fe</c><c>   1</c></rc>
    <rc><c>O </c><c>   2</c></rc>
    <rc><c>O </c><c>   2</c></rc>
    <rc><c>F </c><c>   3</c></rc>
    <rc><c>F </c><c>   3</c></rc>
    <rc><c>F </c><c>   3</c></rc>
    <rc><c>F </c><c>   3</c></rc>
    <rc><c>F </c><c>   3</c></rc>
    <rc><c>F </c><c>   3</c></rc>
    <rc><c>F </c><c>   3</c></rc>
    <rc><c>F </c><c>   3</c></rc>
    <rc><c>F </c><c>   3</c></rc>
    <rc><c>F </c><c>   3</c></rc>
    <rc><c>F </c><c>   3</c></rc>
    <rc><c>F </c><c>   3</c></rc>
    <rc><c>F </c><c>   3</c></rc>
    <rc><c>F </c><c>   3</c></rc>
   </set>
  </array>
  <array name="atomtypes" >
   <dimension dim="1">type</dimension>
   <field type="int">atomspertype</field>
   <field type="string">element</field>
   <field>mass</field>
   <field>valence</field>
   <field type="string">pseudopotential</field>
   <set>
    <rc><c>   8</c><c>Fe</c><c>     55.84700000</c><c>      8.00000000</c><c>  PAW_PBE Fe 06Sep2000                  </c></rc>
    <rc><c>   2</c><c>O </c><c>     16.00000000</c><c>      6.00000000</c><c>  PAW_PBE O 08Apr2002                   </c></rc>
    <rc><c>  14</c><c>F </c><c>     18.99800000</c><c>      7.00000000</c><c>  PAW_PBE F 08Apr2002                   </c></rc>
   </set>
  </array>
 </atominfo>
 <structure name="initialpos" >
  <crystal>
   <varray name="basis" >
    <v>       5.73591900       0.00000000      -0.79026700 </v>
    <v>       0.00000000       4.73916900       0.00000000 </v>
    <v>       0.00000000       0.00000000      10.88396600 </v>
   </varray>
   <i name="volume">    295.86417560 </i>
   <varray name="rec_basis" >
    <v>       0.17433998       0.00000000       0.00000000 </v>
    <v>       0.00000000       0.21100746       0.00000000 </v>
    <v>       0.01265854       0.00000000       0.09187827 </v>
   </varray>
  </crystal>
  <varray name="positions" >
   <v>       0.24699400       0.24850600       0.74623300 </v>
   <v>       0.23904200       0.75149400       0.24623300 </v>
   <v>       0.51485700       0.24497600       0.49879200 </v>
   <v>       0.51485700       0.75502400       0.00567900 </v>
   <v>       0.75373900       0.23127500       0.26486200 </v>
   <v>       0.75373900       0.76872500       0.76486200 </v>
   <v>       0.99045900       0.24137200       0.99652900 </v>
   <v>       0.99045900       0.75862800       0.49652900 </v>
   <v>       0.77857200       0.05847800       0.41725200 </v>
   <v>       0.77857200       0.94152200       0.91725200 </v>
   <v>       0.01370000       0.05755600       0.18278600 </v>
   <v>       0.01370000       0.93478200       0.68278600 </v>
   <v>       0.22224900       0.44944100       0.57080400 </v>
   <v>       0.23180700       0.55055900       0.07080400 </v>
   <v>       0.27923300       0.05174700       0.92203700 </v>
   <v>       0.27923300       0.94825300       0.42203700 </v>
   <v>       0.48564100       0.45353000       0.31584000 </v>
   <v>       0.48187500       0.54647000       0.81800700 </v>
   <v>       0.52253600       0.03560000       0.67416600 </v>
   <v>       0.52253600       0.96440000       0.16433100 </v>
   <v>       0.72235300       0.44302000       0.09109400 </v>
   <v>       0.72235300       0.55698000       0.59109400 </v>
   <v>       0.97343300       0.45650500       0.81960400 </v>
   <v>       0.97343300       0.54349500       0.32357700 </v>
  </varray>
 </structure>
 <calculation>
  <scstep>
   <time name="diag">    0.16    0.18</time>
   <time name="diis">    0.14    0.19</time>
   <time name="orth">    0.23    0.30</time>
   <time name="total">    0.70    0.89</time>
   <energy>
    <i name="alphaZ">    640.28387477 </i>
    <i name="ewald"> -10646.48257390 </i>
    <i name="hartreedc">  -4371.06116455 </i>
    <i name="XCdc">    595.86490951 </i>
    <i name="pawpsdc">  12680.77512887 </i>
    <i name="pawaedc"> -12817.41364524 </i>
    <i name="eentropy">     -0.05425221 </i>
    <i name="bandstr">   1202.01028570 </i>
    <i name="atom">  14851.27451460 </i>
    <i name="e_fr_energy">   2135.19707754 </i>
    <i name="e_wo_entrp">   2135.25132975 </i>
    <i name="e_0_energy">   2135.21516161 </i>
   </energy>
  </scstep>
  <scstep>
   <time name="diag">    0.09    0.09</time>
   <time name="diis">    0.11    0.17</time>
   <time name="orth">    0.04    0.04</time>
   <time name="total">    0.24    0.30</time>
   <energy>
    <i name="e_fr_energy">    654.27670437 </i>
    <i name="e_wo_entrp">    654.33418321 </i>
    <i name="e_0_energy">    654.29586398 </i>
   </energy>
  </scstep>
  <scstep>
   <time name="diag">    0.08    0.09</time>
   <time name="diis">    0.12    0.15</time>
   <time name="orth">    0.02    0.04</time>
   <time name="total">    0.22    0.27</time>
   <energy>
    <i name="e_fr_energy">    225.98164343 </i>
    <i name="e_wo_entrp">    226.01966234 </i>
    <i name="e_0_energy">    225.99431640 </i>
   </energy>
  </scstep>
  <scstep>
   <time name="diag">    0.22    0.25</time>
   <time name="diis">    0.19    0.21</time>
   <time name="orth">    0.13    0.22</time>
   <time name="total">    0.54    0.68</time>
   <energy>
    <i name="e_fr_energy">     42.85826189 </i>
    <i name="e_wo_entrp">     42.83093945 </i>
    <i name="e_0_energy">     42.84915441 </i>
   </energy>
  </scstep>
  <scstep>
   <time name="diag">    0.10    0.21</time>
   <time name="diis">    0.17    0.19</time>
   <time name="orth">    0.01    0.01</time>
   <time name="total">    0.28    0.41</time>
   <energy>
    <i name="e_fr_energy">    -60.82347531 </i>
    <i name="e_wo_entrp">    -60.69355368 </i>
    <i name="e_0_energy">    -60.78016810 </i>
   </energy>
  </scstep>
  <scstep>
   <time name="diag">    0.10    0.11</time>
   <time name="diis">    0.18    0.25</time>
   <time name="orth">    0.06    0.10</time>
   <time name="total">    0.35    0.47</time>
   <energy>
    <i name="e_fr_energy">   -110.48915363 </i>
    <i name="e_wo_entrp">   -110.43742451 </i>
    <i name="e_0_energy">   -110.47191059 </i>
   </energy>
  </scstep>
  <scstep>
   <time name="diag">    0.27    0.45</time>
   <time name="diis">    0.13    0.19</time>
   <time name="orth">    0.07    0.08</time>
   <time name="total">    0.46    0.71</time>
   <energy>
    <i name="e_fr_energy">   -134.97335323 </i>
    <i name="e_wo_entrp">   -135.01121247 </i>
    <i name="e_0_energy">   -134.98597297 </i>
   </energy>
  </scstep>
  <scstep>
   <time name="diag">    0.41    0.57</time>
   <time name="diis">    0.15    0.17</time>
   <time name="orth">    0.11    0.18</time>
   <time name="total">    0.67    0.93</time>
   <energy>
    <i name="e_fr_energy">   -145.22800739 </i>
    <i name="e_wo_entrp">   -145.26480228 </i>
    <i name="e_0_energy">   -145.24027236 </i>
   </energy>
  </scstep>
  <scstep>
   <time name="diag">    0.11    0.16</time>
   <time name="diis">    0.46    0.58</time>
   <time name="orth">    0.03    0.03</time>
   <time name="total">    0.60    0.78</time>
   <energy>
    <i name="e_fr_energy">   -155.26615900 </i>
    <i name="e_wo_entrp">   -155.33994872 </i>
    <i name="e_0_energy">   -155.29075557 </i>
   </energy>
  </scstep>
  <scstep>
   <time name="diag">    0.06    0.09</time>
   <time name="diis">    0.55    0.55</time>
   <time name="orth">    0.01    0.01</time>
   <time name="total">    0.62    0.65</time>
   <energy>
    <i name="e_fr_energy">   -155.54150141 </i>
    <i name="e_wo_entrp">   -155.60505728 </i>
    <i name="e_0_energy">   -155.56268670 </i>
   </energy>
  </scstep>
  <scstep>
   <time name="diag">    0.07    0.07</time>
   <time name="diis">    0.56    0.61</time>
   <time name="orth">    0.06    0.09</time>
   <time name="total">    0.69    0.77</time>
   <energy>
    <i name="e_fr_energy">   -155.74824039 </i>
    <i name="e_wo_entrp">   -155.80560517 </i>
    <i name="e_0_energy">   -155.76736198 </i>
   </energy>
  </scstep>
  <scstep>
   <time name="diag">    0.04    0.04</time>
   <time name="diis">    0.26    0.48</time>
   <time name="orth">    0.05    0.05</time>
   <time name="total">    0.47    0.74</time>
   <energy>
    <i name="e_fr_energy">   -155.86799135 </i>
    <i name="e_wo_entrp">   -155.91670522 </i>
    <i name="e_0_energy">   -155.88422930 </i>
   </energy>
  </scstep>
  <scstep>
   <time name="diag">    0.10    0.14</time>
   <time name="diis">    0.23    0.38</time>
   <time name="orth">    0.07    0.10</time>
   <time name="total">    0.53    0.76</time>
   <energy>
    <i name="e_fr_energy">   -150.66903258 </i>
    <i name="e_wo_entrp">   -150.72602891 </i>
    <i name="e_0_energy">   -150.68803135 </i>
   </energy>
  </scstep>
  <scstep>
   <time name="diag">    0.10    0.14</time>
   <time name="diis">    0.22    0.36</time>
   <time name="orth">    0.03    0.03</time>
   <time name="total">    0.47    0.67</time>
   <energy>
    <i name="e_fr_energy">   -181.46920354 </i>
    <i name="e_wo_entrp">   -181.40439903 </i>
    <i name="e_0_energy">   -181.44760204 </i>
   </energy>
  </scstep>
  <scstep>
   <time name="diag">    0.12    0.16</time>
   <time name="diis">    0.23    0.40</time>
   <time name="orth">    0.10    0.15</time>
   <time name="total">    0.55    0.84</time>
   <energy>
    <i name="e_fr_energy">   -139.16488509 </i>
    <i name="e_wo_entrp">   -139.12120846 </i>
    <i name="e_0_energy">   -139.15032621 </i>
   </energy>
  </scstep>
  <scstep>
   <time name="diag">    0.08    0.09</time>
   <time name="diis">    0.30    0.38</time>
   <time name="orth">    0.01    0.01</time>
   <time name="total">    0.55    0.78</time>
   <energy>
    <i name="e_fr_energy">   -143.13651706 </i>
    <i name="e_wo_entrp">   -143.18987702 </i>
    <i name="e_0_energy">   -143.15430371 </i>
   </energy>
  </scstep>
  <scstep>
   <time name="diag">    0.04    0.08</time>
   <time name="diis">    0.27    0.38</time>
   <time name="orth">    0.06    0.09</time>
   <time name="total">    0.45    0.69</time>
   <energy>
    <i name="e_fr_energy">   -155.50818628 </i>
    <i name="e_wo_entrp">   -155.55673130 </i>
    <i name="e_0_energy">   -155.52436795 </i>
   </energy>
  </scstep>
  <scstep>
   <time name="diag">    0.10    0.17</time>
   <time name="diis">    0.24    0.37</time>
   <time name="orth">    0.02    0.02</time>
   <time name="total">    0.64    1.05</time>
   <energy>
    <i name="e_fr_energy">   -145.31113124 </i>
    <i name="e_wo_entrp">   -145.35122894 </i>
    <i name="e_0_energy">   -145.32449714 </i>
   </energy>
  </scstep>
  <scstep>
   <time name="diag">    0.07    0.08</time>
   <time name="diis">    0.31    0.38</time>
   <time name="orth">    0.02    0.04</time>
   <time name="total">    0.54    0.65</time>
   <energy>
    <i name="e_fr_energy">   -150.64153271 </i>
    <i name="e_wo_entrp">   -150.57195924 </i>
    <i name="e_0_energy">   -150.61834155 </i>
   </energy>
  </scstep>
  <scstep>
   <time name="diag">    0.16    0.23</time>
   <time name="diis">    0.29    0.42</time>
   <time name="orth">    0.01    0.03</time>
   <time name="total">    0.65    0.98</time>
   <energy>
    <i name="e_fr_energy">   -145.64909657 </i>
    <i name="e_wo_entrp">   -145.57351585 </i>
    <i name="e_0_energy">   -145.62390300 </i>
   </energy>
  </scstep>
  <scstep>
   <time name="diag">    0.23    0.28</time>
   <time name="diis">    0.29    0.36</time>
   <time name="orth">    0.01    0.02</time>
   <time name="total">    0.68    0.85</time>
   <energy>
    <i name="e_fr_energy">   -137.71352314 </i>
    <i name="e_wo_entrp">   -137.67942314 </i>
    <i name="e_0_energy">   -137.70215648 </i>
   </energy>
  </scstep>
  <scstep>
   <time name="diag">    0.13    0.15</time>
   <time name="diis">    0.30    0.38</time>
   <time name="orth">    0.07    0.12</time>
   <time name="total">    0.66    0.90</time>
   <energy>
    <i name="e_fr_energy">   -137.54422734 </i>
    <i name="e_wo_entrp">   -137.68968203 </i>
    <i name="e_0_energy">   -137.59271224 </i>
   </energy>
  </scstep>
  <scstep>
   <time name="diag">    0.28    0.39</time>
   <time name="diis">    0.23    0.41</time>
   <time name="orth">    0.07    0.11</time>
   <time name="total">    0.68    1.02</time>
   <energy>
    <i name="e_fr_energy">   -133.71601700 </i>
    <i name="e_wo_entrp">   -133.66649978 </i>
    <i name="e_0_energy">   -133.69951126 </i>
   </energy>
  </scstep>
  <scstep>
   <time name="diag">    0.06    0.14</time>
   <time name="diis">    0.34    0.43</time>
   <time name="orth">    0.01    0.02</time>
   <time name="total">    0.55    0.78</time>
   <energy>
    <i name="e_fr_energy">   -133.54975881 </i>
    <i name="e_wo_entrp">   -133.62699050 </i>
    <i name="e_0_energy">   -133.57550271 </i>
   </energy>
  </scstep>
  <scstep>
   <time name="diag">    0.06    0.06</time>
   <time name="diis">    0.42    0.44</time>
   <time name="orth">    0.36    0.51</time>
   <time name="total">    0.96    1.15</time>
   <energy>
    <i name="e_fr_energy">   -132.66381872 </i>
    <i name="e_wo_entrp">   -132.62365803 </i>
    <i name="e_0_energy">   -132.65043183 </i>
   </energy>
  </scstep>
  <scstep>
   <time name="diag">    0.06    0.06</time>
   <time name="diis">    0.26    0.40</time>
   <time name="orth">    0.02    0.02</time>
   <time name="total">    0.99    1.50</time>
   <energy>
    <i name="e_fr_energy">   -132.46962719 </i>
    <i name="e_wo_entrp">   -132.47864723 </i>
    <i name="e_0_energy">   -132.47263387 </i>
   </energy>
  </scstep>
  <scstep>
   <time name="diag">    0.08    0.10</time>
   <time name="diis">    0.32    0.45</time>
   <time name="orth">    0.02    0.04</time>
   <time name="total">    0.77    1.11</time>
   <energy>
    <i name="e_fr_energy">   -132.43535881 </i>
    <i name="e_wo_entrp">   -132.41412074 </i>
    <i name="e_0_energy">   -132.42827945 </i>
   </energy>
  </scstep>
  <scstep>
   <time name="diag">    0.07    0.08</time>
   <time name="diis">    0.43    0.52</time>
   <time name="orth">    0.01    0.02</time>
   <time name="total">    0.65    0.83</time>
   <energy>
    <i name="e_fr_energy">   -132.43639443 </i>
    <i name="e_wo_entrp">   -132.40373547 </i>
    <i name="e_0_energy">   -132.42550811 </i>
   </energy>
  </scstep>
  <scstep>
   <time name="diag">    0.06    0.06</time>
   <time name="diis">    0.20    0.31</time>
   <time name="orth">    0.02    0.02</time>
   <time name="total">    0.59    0.76</time>
   <energy>
    <i name="e_fr_energy">   -132.53881165 </i>
    <i name="e_wo_entrp">   -132.54359839 </i>
    <i name="e_0_energy">   -132.54040723 </i>
   </energy>
  </scstep>
  <scstep>
   <time name="diag">    0.07    0.11</time>
   <time name="diis">    0.40    0.46</time>
   <time name="orth">    0.06    0.11</time>
   <time name="total">    0.64    0.82</time>
   <energy>
    <i name="e_fr_energy">   -132.54493213 </i>
    <i name="e_wo_entrp">   -132.56143614 </i>
    <i name="e_0_energy">   -132.55043347 </i>
   </energy>
  </scstep>
  <scstep>
   <time name="diag">    0.17    0.17</time>
   <time name="diis">    0.38    0.46</time>
   <time name="orth">    0.01    0.01</time>
   <time name="total">    0.63    0.75</time>
   <energy>
    <i name="e_fr_energy">   -132.54018147 </i>
    <i name="e_wo_entrp">   -132.55366745 </i>
    <i name="e_0_energy">   -132.54467679 </i>
   </energy>
  </scstep>
  <scstep>
   <time name="diag">    0.07    0.08</time>
   <time name="diis">    0.28    0.38</time>
   <time name="orth">    0.09    0.13</time>
   <time name="total">    0.59    0.80</time>
   <energy>
    <i name="e_fr_energy">   -132.53552984 </i>
    <i name="e_wo_entrp">   -132.54500784 </i>
    <i name="e_0_energy">   -132.53868917 </i>
   </energy>
  </scstep>
  <scstep>
   <time name="diag">    0.07    0.08</time>
   <time name="diis">    0.31    0.39</time>
   <time name="orth">    0.09    0.09</time>
   <time name="total">    0.63    0.80</time>
   <energy>
    <i name="e_fr_energy">   -132.53689515 </i>
    <i name="e_wo_entrp">   -132.54576164 </i>
    <i name="e_0_energy">   -132.53985065 </i>
   </energy>
  </scstep>
  <scstep>
   <time name="diag">    0.17    0.27</time>
   <time name="diis">    0.22    0.31</time>
   <time name="orth">    0.01    0.02</time>
   <time name="total">    0.47    0.70</time>
   <energy>
    <i name="e_fr_energy">   -132.53511905 </i>
    <i name="e_wo_entrp">   -132.54395453 </i>
    <i name="e_0_energy">   -132.53806421 </i>
   </energy>
  </scstep>
  <scstep>
   <time name="diag">    0.06    0.06</time>
   <time name="diis">    0.21    0.32</time>
   <time name="orth">    0.09    0.15</time>
   <time name="total">    0.64    0.90</time>
   <energy>
    <i name="e_fr_energy">   -132.53560690 </i>
    <i name="e_wo_entrp">   -132.54496848 </i>
    <i name="e_0_energy">   -132.53872743 </i>
   </energy>
  </scstep>
  <scstep>
   <time name="diag">    0.21    0.28</time>
   <time name="diis">    0.19    0.25</time>
   <time name="orth">    0.01    0.02</time>
   <time name="total">    0.74    0.98</time>
   <energy>
    <i name="e_fr_energy">   -132.53491804 </i>
    <i name="e_wo_entrp">   -132.54268753 </i>
    <i name="e_0_energy">   -132.53750787 </i>
   </energy>
  </scstep>
  <scstep>
   <time name="diag">    0.08    0.08</time>
   <time name="diis">    0.13    0.26</time>
   <time name="orth">    0.01    0.02</time>
   <time name="total">    0.35    0.58</time>
   <energy>
    <i name="e_fr_energy">   -132.53512825 </i>
    <i name="e_wo_entrp">   -132.54370195 </i>
    <i name="e_0_energy">   -132.53798615 </i>
   </energy>
  </scstep>
  <scstep>
   <time name="diag">    0.12    0.22</time>
   <time name="diis">    0.27    0.28</time>
   <time name="orth">    0.09    0.16</time>
   <time name="total">    0.62    0.90</time>
   <energy>
    <i name="e_fr_energy">   -132.53490387 </i>
    <i name="e_wo_entrp">   -132.54273959 </i>
    <i name="e_0_energy">   -132.53751577 </i>
   </energy>
  </scstep>
  <scstep>
   <time name="diag">    0.03    0.06</time>
   <time name="diis">    0.15    0.23</time>
   <time name="orth">    0.06    0.06</time>
   <time name="total">    0.36    0.49</time>
   <energy>
    <i name="e_fr_energy">   -132.53507454 </i>
    <i name="e_wo_entrp">   -132.54296477 </i>
    <i name="e_0_energy">   -132.53770462 </i>
   </energy>
  </scstep>
  <scstep>
   <time name="diag">    0.17    0.19</time>
   <time name="diis">    0.16    0.21</time>
   <time name="orth">    0.08    0.10</time>
   <time name="total">    1.04    1.42</time>
   <energy>
    <i name="alphaZ">    640.28387477 </i>
    <i name="ewald"> -10646.48257390 </i>
    <i name="hartreedc">  -4450.19239688 </i>
    <i name="XCdc">    605.08921975 </i>
    <i name="pawpsdc">  14920.71260783 </i>
    <i name="pawaedc"> -15061.65555187 </i>
    <i name="eentropy">      0.00746111 </i>
    <i name="bandstr">   -991.57214330 </i>
    <i name="atom">  14851.27451460 </i>
    <i name="e_fr_energy">   -132.53498789 </i>
    <i name="e_wo_entrp">   -132.54244900 </i>
    <i name="e_0_energy">   -132.53747493 </i>
   </energy>
  </scstep>
  <structure>
   <crystal>
    <varray name="basis" >
     <v>       5.73591900       0.00000000      -0.79026700 </v>
     <v>       0.00000000       4.73916900       0.00000000 </v>
     <v>       0.00000000       0.00000000      10.88396600 </v>
    </varray>
    <i name="volume">    295.86417560 </i>
    <varray name="rec_basis" >
     <v>       0.17433998       0.00000000       0.00000000 </v>
     <v>       0.00000000       0.21100746       0.00000000 </v>
     <v>       0.01265854       0.00000000       0.09187827 </v>
    </varray>
   </crystal>
   <varray name="positions" >
    <v>       0.24699400       0.24850600       0.74623300 </v>
    <v>       0.23904200       0.75149400       0.24623300 </v>
    <v>       0.51485700       0.24497600       0.49879200 </v>
    <v>       0.51485700       0.75502400       0.00567900 </v>
    <v>       0.75373900       0.23127500       0.26486200 </v>
    <v>       0.75373900       0.76872500       0.76486200 </v>
    <v>       0.99045900       0.24137200       0.99652900 </v>
    <v>       0.99045900       0.75862800       0.49652900 </v>
    <v>       0.77857200       0.05847800       0.41725200 </v>
    <v>       0.77857200       0.94152200       0.91725200 </v>
    <v>       0.01370000       0.05755600       0.18278600 </v>
    <v>       0.01370000       0.93478200       0.68278600 </v>
    <v>       0.22224900       0.44944100       0.57080400 </v>
    <v>       0.23180700       0.55055900       0.07080400 </v>
    <v>       0.27923300       0.05174700       0.92203700 </v>
    <v>       0.27923300       0.94825300       0.42203700 </v>
    <v>       0.48564100       0.45353000       0.31584000 </v>
    <v>       0.48187500       0.54647000       0.81800700 </v>
    <v>       0.52253600       0.03560000       0.67416600 </v>
    <v>       0.52253600       0.96440000       0.16433100 </v>
    <v>       0.72235300       0.44302000       0.09109400 </v>
    <v>       0.72235300       0.55698000       0.59109400 </v>
    <v>       0.97343300       0.45650500       0.81960400 </v>
    <v>       0.97343300       0.54349500       0.32357700 </v>
   </varray>
  </structure>
  <varray name="forces" >
   <v>       0.19468962      -0.06878012      -0.19265997 </v>
   <v>       0.62733048      -0.05857867      -0.26351781 </v>
   <v>       0.93641117      -0.70866721      -0.80510121 </v>
   <v>       0.81107526       0.49287692      -1.66351228 </v>
   <v>       0.17392965       0.23688154      -0.32024646 </v>
   <v>       0.02381930      -0.38260004      -0.10662684 </v>
   <v>      -0.80624047      -1.30252855      -0.98249925 </v>
   <v>      -0.93559782       1.19728829      -0.61235517 </v>
   <v>      -0.48596662      -0.27715291       1.36878506 </v>
   <v>      -0.32768567       0.34174773       1.53118924 </v>
   <v>       0.14631605      -0.38315183       0.07277808 </v>
   <v>       0.33886475       0.61935395      -0.00540037 </v>
   <v>       0.07158232      -0.18576563       0.29750161 </v>
   <v>      -0.24617337       0.18587984       0.48524269 </v>
   <v>      -0.29469729       0.27516385       0.07241061 </v>
   <v>      -0.28247369      -0.25805346      -0.05067690 </v>
   <v>      -0.44781425      -0.08310188       0.64406854 </v>
   <v>      -0.18669430       0.10669511       0.49399548 </v>
   <v>      -0.32267212       0.69914984       0.15744356 </v>
   <v>      -0.28966089      -0.45729768       0.74728451 </v>
   <v>       0.32377158       0.13166685      -0.74279996 </v>
   <v>       0.18388071      -0.10346097      -0.89193202 </v>
   <v>       0.40559298      -0.44732050       0.47530226 </v>
   <v>       0.38841261       0.42975552       0.29132659 </v>
  </varray>
  <varray name="stress" >
   <v>    -238.97424873       1.62294316      20.73330715 </v>
   <v>       1.62294451    -255.99945669       0.03948396 </v>
   <v>      20.73330747       0.03948363    -287.82514386 </v>
  </varray>
  <energy>
   <i name="e_fr_energy">   -132.53498789 </i>
   <i name="e_wo_entrp">   -132.53747493 </i>
   <i name="e_0_energy">      0.00746111 </i>
  </energy>
  <time name="totalsc">   25.16   34.51</time>
  <eigenvalues>
   <array>
    <dimension dim="1">band</dimension>
    <dimension dim="2">kpoint</dimension>
    <dimension dim="3">spin</dimension>
    <field>eigene</field>
    <field>occ</field>
    <set>
     <set comment="spin 1">
      <set comment="kpoint 1">
       <r>  -22.7073    1.0000 </r>
       <r>  -22.5653    1.0000 </r>
       <r>  -22.3959    1.0000 </r>
       <r>  -22.3564    1.0000 </r>
       <r>  -22.2533    1.0000 </r>
       <r>  -22.2213    1.0000 </r>
       <r>  -22.1633    1.0000 </r>
       <r>  -22.0816    1.0000 </r>
       <r>  -22.0677    1.0000 </r>
       <r>  -22.0002    1.0000 </r>
       <r>  -21.9272    1.0000 </r>
       <r>  -21.9022    1.0000 </r>
       <r>  -21.8914    1.0000 </r>
       <r>  -21.7916    1.0000 </r>
       <r>  -16.6719    1.0000 </r>
       <r>  -16.5755    1.0000 </r>
       <r>   -6.0991    1.0000 </r>
       <r>   -5.7272    1.0000 </r>
       <r>   -5.3506    1.0000 </r>
       <r>   -5.2182    1.0000 </r>
       <r>   -5.1794    1.0000 </r>
       <r>   -5.0552    1.0000 </r>
       <r>   -4.9619    1.0000 </r>
       <r>   -4.9134    1.0000 </r>
       <r>   -4.8253    1.0000 </r>
       <r>   -4.7109    1.0000 </r>
       <r>   -4.6338    1.0000 </r>
       <r>   -4.5703    1.0000 </r>
       <r>   -4.5323    1.0000 </r>
       <r>   -4.5216    1.0000 </r>
       <r>   -4.4222    1.0000 </r>
       <r>   -4.3808    1.0000 </r>
       <r>   -4.3060    1.0000 </r>
       <r>   -4.2759    1.0000 </r>
       <r>   -4.2413    1.0000 </r>
       <r>   -4.2136    1.0000 </r>
       <r>   -4.1802    1.0000 </r>
       <r>   -4.1163    1.0000 </r>
       <r>   -4.0460    1.0000 </r>
       <r>   -3.9954    1.0000 </r>
       <r>   -3.9401    1.0000 </r>
       <r>   -3.8773    1.0000 </r>
       <r>   -3.8400    1.0000 </r>
       <r>   -3.8243    1.0000 </r>
       <r>   -3.7167    1.0000 </r>
       <r>   -3.6120    1.0000 </r>
       <r>   -3.3801    1.0000 </r>
       <r>   -3.3425    1.0000 </r>
       <r>   -3.2779    1.0000 </r>
       <r>   -3.1635    1.0000 </r>
       <r>   -3.0781    1.0000 </r>
       <r>   -2.9790    1.0000 </r>
       <r>   -2.9324    1.0000 </r>
       <r>   -2.8860    1.0000 </r>
       <r>   -2.7701    1.0000 </r>
       <r>   -2.7147    1.0000 </r>
       <r>   -2.6378    1.0000 </r>
       <r>   -2.6064    1.0000 </r>
       <r>   -2.4614    1.0000 </r>
       <r>   -2.3706    1.0000 </r>
       <r>   -2.2639    1.0000 </r>
       <r>   -2.1933    1.0000 </r>
       <r>   -1.5245    1.0000 </r>
       <r>   -1.4346    1.0000 </r>
       <r>    0.9982    1.0000 </r>
       <r>    1.0260    1.0000 </r>
       <r>    1.0852    1.0000 </r>
       <r>    1.1050    1.0000 </r>
       <r>    1.1399    1.0001 </r>
       <r>    1.1424    1.0001 </r>
       <r>    1.1710    1.0003 </r>
       <r>    1.2033    1.0006 </r>
       <r>    1.2557    1.0020 </r>
       <r>    1.2787    1.0031 </r>
       <r>    1.3395    1.0091 </r>
       <r>    1.3651    1.0133 </r>
       <r>    1.4013    1.0208 </r>
       <r>    1.4249    1.0263 </r>
       <r>    1.4389    1.0294 </r>
       <r>    1.4876    1.0354 </r>
       <r>    1.5069    1.0336 </r>
       <r>    1.5301    1.0256 </r>
       <r>    1.5809    0.9764 </r>
       <r>    1.6191    0.9013 </r>
       <r>    1.6467    0.8241 </r>
       <r>    1.6584    0.7862 </r>
       <r>    1.6873    0.6804 </r>
       <r>    1.7601    0.3786 </r>
       <r>    1.7674    0.3489 </r>
       <r>    1.9030   -0.0038 </r>
       <r>    1.9806   -0.0354 </r>
       <r>    2.0245   -0.0291 </r>
       <r>    2.0683   -0.0192 </r>
       <r>    2.1520   -0.0056 </r>
       <r>    2.2022   -0.0022 </r>
       <r>    2.2584   -0.0006 </r>
       <r>    2.4517   -0.0000 </r>
       <r>    2.5772   -0.0000 </r>
       <r>    2.8995   -0.0000 </r>
       <r>    2.9417   -0.0000 </r>
       <r>    3.0041   -0.0000 </r>
       <r>    3.0578   -0.0000 </r>
       <r>    3.1542   -0.0000 </r>
       <r>    3.3420   -0.0000 </r>
      </set>
     </set>
    </set>
   </array>
  </eigenvalues>
  <separator name="orbital magnetization" >
   <v name="MAGDIPOLOUT">      0.00000000      0.00000000      0.00000000</v>
  </separator>
  <dos>
   <i name="efermi">      1.73108008 </i>
   <total>
    <array>
     <dimension dim="1">gridpoints</dimension>
     <dimension dim="2">spin</dimension>
     <field>energy</field>
     <field>total</field>
     <field>integrated</field>
     <set>
      <set comment="spin 1">
       <r>   -24.7073     0.0000     0.0000 </r>
       <r>   -24.6072     0.0000     0.0000 </r>
       <r>   -24.5070     0.0000     0.0000 </r>
       <r>   -24.4069    -0.0000    -0.0000 </r>
       <r>   -24.3067    -0.0000    -0.0000 </r>
       <r>   -24.2065    -0.0000    -0.0000 </r>
       <r>   -24.1064    -0.0000    -0.0000 </r>
       <r>   -24.0062    -0.0000    -0.0000 </r>
       <r>   -23.9060    -0.0000    -0.0000 </r>
       <r>   -23.8059    -0.0000    -0.0000 </r>
       <r>   -23.7057    -0.0000    -0.0000 </r>
       <r>   -23.6055    -0.0000    -0.0000 </r>
       <r>   -23.5054    -0.0000    -0.0000 </r>
       <r>   -23.4052    -0.0001    -0.0000 </r>
       <r>   -23.3050    -0.0019    -0.0002 </r>
       <r>   -23.2049    -0.0230    -0.0025 </r>
       <r>   -23.1047    -0.1508    -0.0176 </r>
       <r>   -23.0046    -0.4712    -0.0648 </r>
       <r>   -22.9044    -0.2243    -0.0873 </r>
       <r>   -22.8042     2.7155     0.1847 </r>
       <r>   -22.7041     8.3011     1.0162 </r>
       <r>   -22.6039    12.2847     2.2467 </r>
       <r>   -22.5037    13.8164     3.6306 </r>
       <r>   -22.4036    17.9555     5.4291 </r>
       <r>   -22.3034    25.7309     8.0064 </r>
       <r>   -22.2032    32.6670    11.2785 </r>
       <r>   -22.1031    37.1317    14.9978 </r>
       <r>   -22.0029    40.7230    19.0768 </r>
       <r>   -21.9027    41.1959    23.2032 </r>
       <r>   -21.8026    32.0024    26.4087 </r>
       <r>   -21.7024    15.3376    27.9449 </r>
       <r>   -21.6022     2.7681    28.2222 </r>
       <r>   -21.5021    -1.1363    28.1084 </r>
       <r>   -21.4019    -0.8269    28.0256 </r>
       <r>   -21.3018    -0.2211    28.0034 </r>
       <r>   -21.2016    -0.0315    28.0003 </r>
       <r>   -21.1014    -0.0026    28.0000 </r>
       <r>   -21.0013    -0.0001    28.0000 </r>
       <r>   -20.9011    -0.0000    28.0000 </r>
       <r>   -20.8009    -0.0000    28.0000 </r>
       <r>   -20.7008    -0.0000    28.0000 </r>
       <r>   -20.6006    -0.0000    28.0000 </r>
       <r>   -20.5004    -0.0000    28.0000 </r>
       <r>   -20.4003     0.0000    28.0000 </r>
       <r>   -20.3001     0.0000    28.0000 </r>
       <r>   -20.1999     0.0000    28.0000 </r>
       <r>   -20.0998     0.0000    28.0000 </r>
       <r>   -19.9996     0.0000    28.0000 </r>
       <r>   -19.8994     0.0000    28.0000 </r>
       <r>   -19.7993     0.0000    28.0000 </r>
       <r>   -19.6991     0.0000    28.0000 </r>
       <r>   -19.5990     0.0000    28.0000 </r>
       <r>   -19.4988     0.0000    28.0000 </r>
       <r>   -19.3986     0.0000    28.0000 </r>
       <r>   -19.2985     0.0000    28.0000 </r>
       <r>   -19.1983     0.0000    28.0000 </r>
       <r>   -19.0981     0.0000    28.0000 </r>
       <r>   -18.9980     0.0000    28.0000 </r>
       <r>   -18.8978     0.0000    28.0000 </r>
       <r>   -18.7976     0.0000    28.0000 </r>
       <r>   -18.6975     0.0000    28.0000 </r>
       <r>   -18.5973     0.0000    28.0000 </r>
       <r>   -18.4971     0.0000    28.0000 </r>
       <r>   -18.3970     0.0000    28.0000 </r>
       <r>   -18.2968    -0.0000    28.0000 </r>
       <r>   -18.1967    -0.0000    28.0000 </r>
       <r>   -18.0965    -0.0000    28.0000 </r>
       <r>   -17.9963    -0.0000    28.0000 </r>
       <r>   -17.8962    -0.0000    28.0000 </r>
       <r>   -17.7960    -0.0000    28.0000 </r>
       <r>   -17.6958    -0.0000    28.0000 </r>
       <r>   -17.5957    -0.0000    28.0000 </r>
       <r>   -17.4955    -0.0000    28.0000 </r>
       <r>   -17.3953    -0.0000    28.0000 </r>
       <r>   -17.2952    -0.0010    27.9999 </r>
       <r>   -17.1950    -0.0136    27.9985 </r>
       <r>   -17.0948    -0.1084    27.9877 </r>
       <r>   -16.9947    -0.4402    27.9436 </r>
       <r>   -16.8945    -0.5654    27.8870 </r>
       <r>   -16.7943     1.9701    28.0843 </r>
       <r>   -16.6942     8.9243    28.9782 </r>
       <r>   -16.5940    14.6981    30.4504 </r>
       <r>   -16.4939    11.9787    31.6503 </r>
       <r>   -16.3937     4.3902    32.0900 </r>
       <r>   -16.2935    -0.0483    32.0852 </r>
       <r>   -16.1934    -0.6024    32.0248 </r>
       <r>   -16.0932    -0.2103    32.0037 </r>
       <r>   -15.9930    -0.0342    32.0003 </r>
       <r>   -15.8929    -0.0030    32.0000 </r>
       <r>   -15.7927    -0.0002    32.0000 </r>
       <r>   -15.6925    -0.0000    32.0000 </r>
       <r>   -15.5924    -0.0000    32.0000 </r>
       <r>   -15.4922    -0.0000    32.0000 </r>
       <r>   -15.3920    -0.0000    32.0000 </r>
       <r>   -15.2919    -0.0000    32.0000 </r>
       <r>   -15.1917     0.0000    32.0000 </r>
       <r>   -15.0916     0.0000    32.0000 </r>
       <r>   -14.9914     0.0000    32.0000 </r>
       <r>   -14.8912     0.0000    32.0000 </r>
       <r>   -14.7911     0.0000    32.0000 </r>
       <r>   -14.6909     0.0000    32.0000 </r>
       <r>   -14.5907     0.0000    32.0000 </r>
       <r>   -14.4906     0.0000    32.0000 </r>
       <r>   -14.3904     0.0000    32.0000 </r>
       <r>   -14.2902     0.0000    32.0000 </r>
       <r>   -14.1901     0.0000    32.0000 </r>
       <r>   -14.0899     0.0000    32.0000 </r>
       <r>   -13.9897     0.0000    32.0000 </r>
       <r>   -13.8896     0.0000    32.0000 </r>
       <r>   -13.7894     0.0000    32.0000 </r>
       <r>   -13.6892     0.0000    32.0000 </r>
       <r>   -13.5891     0.0000    32.0000 </r>
       <r>   -13.4889     0.0000    32.0000 </r>
       <r>   -13.3888     0.0000    32.0000 </r>
       <r>   -13.2886     0.0000    32.0000 </r>
       <r>   -13.1884     0.0000    32.0000 </r>
       <r>   -13.0883     0.0000    32.0000 </r>
       <r>   -12.9881     0.0000    32.0000 </r>
       <r>   -12.8879     0.0000    32.0000 </r>
       <r>   -12.7878     0.0000    32.0000 </r>
       <r>   -12.6876     0.0000    32.0000 </r>
       <r>   -12.5874     0.0000    32.0000 </r>
       <r>   -12.4873     0.0000    32.0000 </r>
       <r>   -12.3871     0.0000    32.0000 </r>
       <r>   -12.2869     0.0000    32.0000 </r>
       <r>   -12.1868     0.0000    32.0000 </r>
       <r>   -12.0866     0.0000    32.0000 </r>
       <r>   -11.9865     0.0000    32.0000 </r>
       <r>   -11.8863     0.0000    32.0000 </r>
       <r>   -11.7861     0.0000    32.0000 </r>
       <r>   -11.6860     0.0000    32.0000 </r>
       <r>   -11.5858     0.0000    32.0000 </r>
       <r>   -11.4856     0.0000    32.0000 </r>
       <r>   -11.3855     0.0000    32.0000 </r>
       <r>   -11.2853     0.0000    32.0000 </r>
       <r>   -11.1851     0.0000    32.0000 </r>
       <r>   -11.0850     0.0000    32.0000 </r>
       <r>   -10.9848     0.0000    32.0000 </r>
       <r>   -10.8846     0.0000    32.0000 </r>
       <r>   -10.7845     0.0000    32.0000 </r>
       <r>   -10.6843     0.0000    32.0000 </r>
       <r>   -10.5841     0.0000    32.0000 </r>
       <r>   -10.4840     0.0000    32.0000 </r>
       <r>   -10.3838     0.0000    32.0000 </r>
       <r>   -10.2837     0.0000    32.0000 </r>
       <r>   -10.1835     0.0000    32.0000 </r>
       <r>   -10.0833     0.0000    32.0000 </r>
       <r>    -9.9832     0.0000    32.0000 </r>
       <r>    -9.8830     0.0000    32.0000 </r>
       <r>    -9.7828     0.0000    32.0000 </r>
       <r>    -9.6827     0.0000    32.0000 </r>
       <r>    -9.5825     0.0000    32.0000 </r>
       <r>    -9.4823     0.0000    32.0000 </r>
       <r>    -9.3822     0.0000    32.0000 </r>
       <r>    -9.2820     0.0000    32.0000 </r>
       <r>    -9.1818     0.0000    32.0000 </r>
       <r>    -9.0817     0.0000    32.0000 </r>
       <r>    -8.9815     0.0000    32.0000 </r>
       <r>    -8.8814     0.0000    32.0000 </r>
       <r>    -8.7812     0.0000    32.0000 </r>
       <r>    -8.6810     0.0000    32.0000 </r>
       <r>    -8.5809     0.0000    32.0000 </r>
       <r>    -8.4807     0.0000    32.0000 </r>
       <r>    -8.3805     0.0000    32.0000 </r>
       <r>    -8.2804     0.0000    32.0000 </r>
       <r>    -8.1802     0.0000    32.0000 </r>
       <r>    -8.0800     0.0000    32.0000 </r>
       <r>    -7.9799     0.0000    32.0000 </r>
       <r>    -7.8797     0.0000    32.0000 </r>
       <r>    -7.7795    -0.0000    32.0000 </r>
       <r>    -7.6794    -0.0000    32.0000 </r>
       <r>    -7.5792    -0.0000    32.0000 </r>
       <r>    -7.4790    -0.0000    32.0000 </r>
       <r>    -7.3789    -0.0000    32.0000 </r>
       <r>    -7.2787    -0.0000    32.0000 </r>
       <r>    -7.1786    -0.0000    32.0000 </r>
       <r>    -7.0784    -0.0000    32.0000 </r>
       <r>    -6.9782    -0.0000    32.0000 </r>
       <r>    -6.8781    -0.0000    32.0000 </r>
       <r>    -6.7779    -0.0002    32.0000 </r>
       <r>    -6.6777    -0.0032    31.9997 </r>
       <r>    -6.5776    -0.0335    31.9963 </r>
       <r>    -6.4774    -0.1861    31.9777 </r>
       <r>    -6.3772    -0.4185    31.9357 </r>
       <r>    -6.2771     0.4424    31.9801 </r>
       <r>    -6.1769     4.0609    32.3868 </r>
       <r>    -6.0767     7.6665    33.1547 </r>
       <r>    -5.9766     6.2450    33.7803 </r>
       <r>    -5.8764     3.3450    34.1153 </r>
       <r>    -5.7763     5.1600    34.6322 </r>
       <r>    -5.6761     7.4295    35.3763 </r>
       <r>    -5.5759     4.6457    35.8417 </r>
       <r>    -5.4758     2.2587    36.0679 </r>
       <r>    -5.3756     6.6942    36.7384 </r>
       <r>    -5.2754    15.2352    38.2644 </r>
       <r>    -5.1753    21.2639    40.3943 </r>
       <r>    -5.0751    22.9118    42.6893 </r>
       <r>    -4.9749    23.8779    45.0810 </r>
       <r>    -4.8748    24.2135    47.5063 </r>
       <r>    -4.7746    22.5362    49.7637 </r>
       <r>    -4.6744    24.7152    52.2393 </r>
       <r>    -4.5743    32.4722    55.4918 </r>
       <r>    -4.4741    37.5956    59.2576 </r>
       <r>    -4.3739    39.3807    63.2021 </r>
       <r>    -4.2738    43.9833    67.6077 </r>
       <r>    -4.1736    46.0446    72.2197 </r>
       <r>    -4.0735    40.8892    76.3154 </r>
       <r>    -3.9733    37.4045    80.0620 </r>
       <r>    -3.8731    38.5203    83.9203 </r>
       <r>    -3.7730    35.1642    87.4425 </r>
       <r>    -3.6728    24.6328    89.9099 </r>
       <r>    -3.5726    13.9641    91.3086 </r>
       <r>    -3.4725    10.6239    92.3727 </r>
       <r>    -3.3723    17.0684    94.0824 </r>
       <r>    -3.2721    23.9919    96.4855 </r>
       <r>    -3.1720    23.7873    98.8681 </r>
       <r>    -3.0718    23.0066   101.1726 </r>
       <r>    -2.9716    26.1947   103.7964 </r>
       <r>    -2.8715    28.5392   106.6550 </r>
       <r>    -2.7713    28.4323   109.5029 </r>
       <r>    -2.6712    28.5943   112.3670 </r>
       <r>    -2.5710    26.1445   114.9858 </r>
       <r>    -2.4708    21.1570   117.1050 </r>
       <r>    -2.3707    19.7600   119.0842 </r>
       <r>    -2.2705    21.0945   121.1971 </r>
       <r>    -2.1703    18.2093   123.0211 </r>
       <r>    -2.0702     9.4868   123.9713 </r>
       <r>    -1.9700     1.6373   124.1353 </r>
       <r>    -1.8698    -1.1399   124.0211 </r>
       <r>    -1.7697    -1.1756   123.9034 </r>
       <r>    -1.6695     0.9147   123.9950 </r>
       <r>    -1.5693     7.3435   124.7305 </r>
       <r>    -1.4692    14.2844   126.1613 </r>
       <r>    -1.3690    13.2801   127.4915 </r>
       <r>    -1.2688     5.7172   128.0642 </r>
       <r>    -1.1687     0.3424   128.0985 </r>
       <r>    -1.0685    -0.6594   128.0324 </r>
       <r>    -0.9684    -0.2702   128.0054 </r>
       <r>    -0.8682    -0.0486   128.0005 </r>
       <r>    -0.7680    -0.0047   128.0000 </r>
       <r>    -0.6679    -0.0003   128.0000 </r>
       <r>    -0.5677    -0.0000   128.0000 </r>
       <r>    -0.4675    -0.0000   128.0000 </r>
       <r>    -0.3674    -0.0000   128.0000 </r>
       <r>    -0.2672    -0.0000   128.0000 </r>
       <r>    -0.1670    -0.0000   128.0000 </r>
       <r>    -0.0669    -0.0000   128.0000 </r>
       <r>     0.0333    -0.0000   128.0000 </r>
       <r>     0.1335    -0.0000   128.0000 </r>
       <r>     0.2336    -0.0000   128.0000 </r>
       <r>     0.3338    -0.0004   128.0000 </r>
       <r>     0.4339    -0.0076   127.9992 </r>
       <r>     0.5341    -0.0843   127.9908 </r>
       <r>     0.6343    -0.5263   127.9380 </r>
       <r>     0.7344    -1.6693   127.7708 </r>
       <r>     0.8346    -1.2881   127.6418 </r>
       <r>     0.9348     8.3474   128.4779 </r>
       <r>     1.0349    31.7394   131.6571 </r>
       <r>     1.1351    55.7964   137.2459 </r>
       <r>     1.2353    63.5880   143.6152 </r>
       <r>     1.3354    61.1483   149.7400 </r>
       <r>     1.4356    62.6725   156.0176 </r>
       <r>     1.5358    65.8726   162.6157 </r>
       <r>     1.6359    63.5357   168.9797 </r>
       <r>     1.7361    52.3393   174.2223 </r>
       <r>     1.8363    35.6965   177.7978 </r>
       <r>     1.9364    26.9969   180.5019 </r>
       <r>     2.0366    30.1625   183.5231 </r>
       <r>     2.1367    33.6741   186.8961 </r>
       <r>     2.2369    29.4088   189.8418 </r>
       <r>     2.3371    19.6959   191.8146 </r>
       <r>     2.4372    13.3116   193.1480 </r>
       <r>     2.5374    12.5749   194.4075 </r>
       <r>     2.6376     9.8153   195.3907 </r>
       <r>     2.7377     4.9106   195.8826 </r>
       <r>     2.8379     8.3947   196.7234 </r>
       <r>     2.9381    21.4984   198.8768 </r>
       <r>     3.0382    30.0402   201.8858 </r>
       <r>     3.1384    25.6430   204.4543 </r>
       <r>     3.2386    16.2098   206.0779 </r>
       <r>     3.3387    10.5031   207.1300 </r>
       <r>     3.4389     6.8705   207.8181 </r>
       <r>     3.5390     2.5352   208.0721 </r>
       <r>     3.6392    -0.1191   208.0601 </r>
       <r>     3.7394    -0.4309   208.0170 </r>
       <r>     3.8395    -0.1449   208.0025 </r>
       <r>     3.9397    -0.0226   208.0002 </r>
       <r>     4.0399    -0.0019   208.0000 </r>
       <r>     4.1400    -0.0001   208.0000 </r>
       <r>     4.2402    -0.0000   208.0000 </r>
       <r>     4.3404    -0.0000   208.0000 </r>
       <r>     4.4405    -0.0000   208.0000 </r>
       <r>     4.5407    -0.0000   208.0000 </r>
       <r>     4.6409    -0.0000   208.0000 </r>
       <r>     4.7410     0.0000   208.0000 </r>
       <r>     4.8412     0.0000   208.0000 </r>
       <r>     4.9414     0.0000   208.0000 </r>
       <r>     5.0415     0.0000   208.0000 </r>
       <r>     5.1417     0.0000   208.0000 </r>
       <r>     5.2418     0.0000   208.0000 </r>
       <r>     5.3420     0.0000   208.0000 </r>
      </set>
     </set>
    </array>
   </total>
  </dos>
 </calculation>
 <structure name="finalpos" >
  <crystal>
   <varray name="basis" >
    <v>       5.73591900       0.00000000      -0.79026700 </v>
    <v>       0.00000000       4.73916900       0.00000000 </v>
    <v>       0.00000000       0.00000000      10.88396600 </v>
   </varray>
   <i name="volume">    295.86417560 </i>
   <varray name="rec_basis" >
    <v>       0.17433998       0.00000000       0.00000000 </v>
    <v>       0.00000000       0.21100746       0.00000000 </v>
    <v>       0.01265854       0.00000000       0.09187827 </v>
   </varray>
  </crystal>
  <varray name="positions" >
   <v>       0.24699400       0.24850600       0.74623300 </v>
   <v>       0.23904200       0.75149400       0.24623300 </v>
   <v>       0.51485700       0.24497600       0.49879200 </v>
   <v>       0.51485700       0.75502400       0.00567900 </v>
   <v>       0.75373900       0.23127500       0.26486200 </v>
   <v>       0.75373900       0.76872500       0.76486200 </v>
   <v>       0.99045900       0.24137200       0.99652900 </v>
   <v>       0.99045900       0.75862800       0.49652900 </v>
   <v>       0.77857200       0.05847800       0.41725200 </v>
   <v>       0.77857200       0.94152200       0.91725200 </v>
   <v>       0.01370000       0.05755600       0.18278600 </v>
   <v>       0.01370000       0.93478200       0.68278600 </v>
   <v>       0.22224900       0.44944100       0.57080400 </v>
   <v>       0.23180700       0.55055900       0.07080400 </v>
   <v>       0.27923300       0.05174700       0.92203700 </v>
   <v>       0.27923300       0.94825300       0.42203700 </v>
   <v>       0.48564100       0.45353000       0.31584000 </v>
   <v>       0.48187500       0.54647000       0.81800700 </v>
   <v>       0.52253600       0.03560000       0.67416600 </v>
   <v>       0.52253600       0.96440000       0.16433100 </v>
   <v>       0.72235300       0.44302000       0.09109400 </v>
   <v>       0.72235300       0.55698000       0.59109400 </v>
   <v>       0.97343300       0.45650500       0.81960400 </v>
   <v>       0.97343300       0.54349500       0.32357700 </v>
  </varray>
 </structure>
</modeling>
