
  ___ ___ ___ _ _ _  
 |   |   |_  | | | | 
 | | | | | . | | | | 
 |__ |  _|___|_____|  1.4.0
 |___|_|             

User:   murakami@tssm1.eng.shizuoka.ac.jp
Date:   Mon Jan 28 07:06:09 2019
Arch:   x86_64
Pid:    19793
Python: 3.6.5
gpaw:   /home/murakami/.local/lib/python3.6/site-packages/gpaw
_gpaw:  /home/murakami/.local/lib/python3.6/site-packages/
        _gpaw.cpython-36m-x86_64-linux-gnu.so
ase:    /home/murakami/.local/lib/python3.6/site-packages/ase (version 3.16.2)
numpy:  /home/murakami/.local/lib/python3.6/site-packages/numpy (version 1.15.2)
scipy:  /home/murakami/.local/lib/python3.6/site-packages/scipy (version 1.1.0)
units:  Angstrom and eV
cores:  1

Input parameters:
  kpts: {size: (1, 1, 1)}
  maxiter: 300
  xc: PBE

System changes: positions, numbers, cell, pbc, initial_charges, initial_magmoms 

Initialize ...

Fe-setup:
  name: Iron
  id: 37abbd8d6c3c35915a9b583b742da910
  Z: 26
  valence: 8
  core: 18
  charge: 0.0
  file: /home/murakami/Public/gpaw-setups-0.9.20000/Fe.PBE.gz
  cutoffs: 1.06(comp), 2.06(filt), 2.67(core), lmax=2
  valence states:
                energy  radius
    4s(2.00)    -5.291   1.164
    4p(0.00)    -1.326   1.058
    3d(6.00)    -7.505   1.058
    *s          21.920   1.164
    *p          25.885   1.058
    *d          19.706   1.058

  Using partial waves for Fe as LCAO basis

O-setup:
  name: Oxygen
  id: 32ecd46bf208036f09c70b0ec9a88b78
  Z: 8
  valence: 6
  core: 2
  charge: 0.0
  file: /home/murakami/Public/gpaw-setups-0.9.20000/O.PBE.gz
  cutoffs: 0.67(comp), 1.17(filt), 0.83(core), lmax=2
  valence states:
                energy  radius
    2s(2.00)   -23.961   0.688
    2p(4.00)    -9.029   0.598
    *s           3.251   0.688
    *p          18.182   0.598
    *d           0.000   0.619

  Using partial waves for O as LCAO basis

F-setup:
  name: Fluorine
  id: 9cd46ba2a61e170ad72278be75b55cc0
  Z: 9
  valence: 7
  core: 2
  charge: 0.0
  file: /home/murakami/Public/gpaw-setups-0.9.20000/F.PBE.gz
  cutoffs: 0.64(comp), 1.14(filt), 0.74(core), lmax=2
  valence states:
                energy  radius
    2s(2.00)   -29.898   0.635
    2p(5.00)   -11.110   0.635
    *s          -2.687   0.635
    *p          16.102   0.635
    *d           0.000   0.635

  Using partial waves for F as LCAO basis

Reference energy: -648925.267931

Spin-paired calculation

Occupation numbers:
  Fermi-Dirac: width=0.1000 eV

Convergence criteria:
  Maximum total energy change: 0.0005 eV / electron
  Maximum integral of absolute density change: 0.0001 electrons
  Maximum integral of absolute eigenstate change: 4e-08 eV^2
  Maximum number of iterations: 300

Symmetries present (total): 1

  ( 1  0  0)
  ( 0  1  0)
  ( 0  0  1)

1 k-point (Gamma)
1 k-point in the irreducible part of the Brillouin zone
       k-points in crystal coordinates                weights
   0:     0.00000000    0.00000000    0.00000000          1/1

Wave functions: Uniform real-space grid
  Kinetic energy operator: 8*3+1=25 point O(h^6) finite-difference Laplacian
  ScaLapack parameters: grid=1x1, blocksize=None 

Eigensolver
   Davidson(niter=1, smin=None, normalize=True) 

Densities:
  Coarse grid: 48*28*76 grid
  Fine grid: 96*56*152 grid
  Total Charge: 0.000000 

Density mixing:
  Method: separate
  Backend: pulay
  Linear mixing parameter: 0.05
  Mixing with 5 old densities
  Damping of long wave oscillations: 50 

Hamiltonian:
  XC and Coulomb potentials evaluated on a 96*56*152 grid
  Using the PBE Exchange-Correlation functional
  Interpolation: tri-quintic (5. degree polynomial)
  Poisson solver: Jacobi solver with 4 multi-grid levels
    Coarsest grid: 12 x 7 x 19 points
    Stencil: 8*3+1=25 point O(h^6) finite-difference Laplacian
    Max iterations: 1000
    Tolerance: 2.000000e-10 

Memory estimate:
  Process memory now: 1080.06 MiB
  Calculator: 625.81 MiB
    Density: 116.13 MiB
      Arrays: 20.26 MiB
      Localized functions: 88.08 MiB
      Mixer: 7.79 MiB
    Hamiltonian: 35.03 MiB
      Arrays: 13.25 MiB
      XC: 0.00 MiB
      Poisson: 15.10 MiB
      vbar: 6.68 MiB
    Wavefunctions: 474.64 MiB
      Arrays psit_nG: 224.44 MiB
      Eigensolver: 234.67 MiB
      Projections: 1.66 MiB
      Projectors: 13.87 MiB

Total number of cores used: 1

Number of atoms: 52
Number of atomic orbitals: 288
Number of bands in calculation: 288
Bands to converge: occupied states only
Number of valence electrons: 376

... initialized

Initializing position-dependent things.

Density initialized from atomic densities
Creating initial wave functions:
  288 bands from LCAO basis set

                                           
                                           
                                           
                                           
                          Fe               
              F       F                    
             Fe              O             
               O        F       F          
                            Fe             
         F      F         F                
               Fe                          
            FFe    F   F   F               
              F              F             
         F     F       Fe                  
                        F   Fe             
             Fe  O        F     F          
               Fe Fe   Fe                  
            F      F       O               
              F       F     Fe             
         F                Fe               
             FeF        F                  
                         F                 
          F     F Fe                       
            F             F                
                    F       Fe             
                                           
                                           
                                           
                                           
                                           

Positions:
   0 Fe     1.542848    2.593853    2.677597    ( 0.0000,  0.0000,  0.0000)
   1 Fe     1.542848    2.765614   10.070131    ( 0.0000,  0.0000,  0.0000)
   2 Fe     6.306770    5.273587    2.634966    ( 0.0000,  0.0000,  0.0000)
   3 Fe     6.243444    0.085880   10.113358    ( 0.0000,  0.0000,  0.0000)
   4 Fe     1.648330    2.534235   14.537576    ( 0.0000,  0.0000,  0.0000)
   5 Fe     1.648330    2.825232    7.059751    ( 0.0000,  0.0000,  0.0000)
   6 Fe     6.348925    5.213968   14.495512    ( 0.0000,  0.0000,  0.0000)
   7 Fe     6.348925    0.145499    7.017686    ( 0.0000,  0.0000,  0.0000)
   8 Fe     3.117708    0.157643   12.271643    ( 0.0000,  0.0000,  0.0000)
   9 Fe     3.117708    5.201824    4.793817    ( 0.0000,  0.0000,  0.0000)
  10 Fe     7.818303    2.805944   12.229578    ( 0.0000,  0.0000,  0.0000)
  11 Fe     7.829838    2.522090    4.751649    ( 0.0000,  0.0000,  0.0000)
  12 Fe     3.136416    0.023153    7.557484    ( 0.0000,  0.0000,  0.0000)
  13 Fe     3.136416    5.336314    0.101658    ( 0.0000,  0.0000,  0.0000)
  14 Fe     7.837011    2.702886    7.663660    ( 0.0000,  0.0000,  0.0000)
  15 Fe     7.837011    2.656581    0.051877    ( 0.0000,  0.0000,  0.0000)
  16 O      2.907450    1.433164   13.814659    ( 0.0000,  0.0000,  0.0000)
  17 O      2.907450    3.926303    6.336834    ( 0.0000,  0.0000,  0.0000)
  18 O      7.608045    4.112898   13.772595    ( 0.0000,  0.0000,  0.0000)
  19 O      7.608045    1.246569    6.184606    ( 0.0000,  0.0000,  0.0000)
  20 F      0.036298    1.976797    3.648091    ( 0.0000,  0.0000,  0.0000)
  21 F      0.036298    3.382670   11.125917    ( 0.0000,  0.0000,  0.0000)
  22 F      4.736893    4.656530    3.606027    ( 0.0000,  0.0000,  0.0000)
  23 F      4.736893    0.702937   11.083852    ( 0.0000,  0.0000,  0.0000)
  24 F      0.243622    2.119010    8.659520    ( 0.0000,  0.0000,  0.0000)
  25 F      0.243622    3.190233    1.159560    ( 0.0000,  0.0000,  0.0000)
  26 F      4.944218    4.798743    8.699906    ( 0.0000,  0.0000,  0.0000)
  27 F      4.944218    0.560724    1.139630    ( 0.0000,  0.0000,  0.0000)
  28 F      1.655719    1.147837    1.234055    ( 0.0000,  0.0000,  0.0000)
  29 F      1.655719    4.211630    8.711881    ( 0.0000,  0.0000,  0.0000)
  30 F      6.356314    3.827571    1.267472    ( 0.0000,  0.0000,  0.0000)
  31 F      6.356314    1.531896    8.669816    ( 0.0000,  0.0000,  0.0000)
  32 F      1.706072    1.106215   11.043749    ( 0.0000,  0.0000,  0.0000)
  33 F      1.706072    4.269110    3.565923    ( 0.0000,  0.0000,  0.0000)
  34 F      6.406667    3.770090   11.001684    ( 0.0000,  0.0000,  0.0000)
  35 F      6.480250    1.589377    3.523200    ( 0.0000,  0.0000,  0.0000)
  36 F      1.776853    1.081862    6.320255    ( 0.0000,  0.0000,  0.0000)
  37 F      1.776853    4.277605   13.798081    ( 0.0000,  0.0000,  0.0000)
  38 F      6.477449    3.761596    6.278191    ( 0.0000,  0.0000,  0.0000)
  39 F      6.477449    1.597871   13.673491    ( 0.0000,  0.0000,  0.0000)
  40 F      2.824748    1.859028    8.623201    ( 0.0000,  0.0000,  0.0000)
  41 F      2.759033    3.500439    1.145964    ( 0.0000,  0.0000,  0.0000)
  42 F      7.459629    4.538761    8.581725    ( 0.0000,  0.0000,  0.0000)
  43 F      7.459629    0.820706    1.103899    ( 0.0000,  0.0000,  0.0000)
  44 F      2.849557    1.637912    3.683786    ( 0.0000,  0.0000,  0.0000)
  45 F      2.789653    3.721555   11.162147    ( 0.0000,  0.0000,  0.0000)
  46 F      7.550153    4.317646    3.641721    ( 0.0000,  0.0000,  0.0000)
  47 F      7.550153    1.041821   11.119547    ( 0.0000,  0.0000,  0.0000)
  48 F      4.613296    0.721642    6.284284    ( 0.0000,  0.0000,  0.0000)
  49 F      4.613296    4.637825   13.762110    ( 0.0000,  0.0000,  0.0000)
  50 F      9.313892    3.401375    6.242220    ( 0.0000,  0.0000,  0.0000)
  51 F      9.313892    1.958092   13.865683    ( 0.0000,  0.0000,  0.0000)

Unit cell:
           periodic     x           y           z      points  spacing
  1. axis:    yes    9.401191    0.000000   -0.084129    48     0.1959
  2. axis:    yes    0.000000    5.359467    0.000000    28     0.1914
  3. axis:    yes    0.000000    0.000000   14.955651    76     0.1968

  Lengths:   9.401567   5.359467  14.955651
  Angles:   90.000000  90.512712  90.000000

Effective grid spacing dv^(1/3) = 0.1947

                     log10-error:    total        iterations:
           time      wfs    density  energy       fermi  poisson
iter:   1  07:07:06  +1.50   +inf  -311.967153    3      18     
iter:   2  07:07:33  +0.31   +inf  -313.581938    3             
iter:   3  07:08:00  -0.28   +inf  -314.026071    2             
iter:   4  07:08:32  -0.44  -1.13  -311.884832    3      20     
iter:   5  07:09:05  -0.44  -1.15  -325.950057    4      30     
iter:   6  07:09:39  -0.17  -1.13  -344.042308    4      35     
iter:   7  07:10:13  -0.30  -1.18  -317.194090    3      34     
iter:   8  07:10:46  -0.37  -1.28  -307.510835    4      30     
iter:   9  07:11:20  -0.71  -1.35  -326.707950    3      34     
iter:  10  07:11:54  -0.75  -1.22  -308.180009    3      34     
iter:  11  07:12:27  -1.10  -1.35  -301.997406    4      27     
iter:  12  07:13:00  -1.74  -1.43  -301.048515    3      25     
iter:  13  07:13:32  -1.71  -1.45  -301.949269    3      19     
iter:  14  07:14:04  -1.34  -1.45  -302.608397    3      23     
iter:  15  07:14:38  -1.31  -1.43  -319.327241    4      33     
iter:  16  07:15:12  -1.16  -1.26  -304.853649    4      32     
iter:  17  07:15:44  -1.43  -1.44  -300.992094    3      25     
iter:  18  07:16:18  -1.61  -1.51  -303.367097    3      29     
iter:  19  07:16:51  -1.47  -1.44  -302.982659    4      29     
iter:  20  07:17:24  -1.47  -1.47  -301.635806    3      26     
iter:  21  07:17:56  -1.69  -1.52  -302.772049    3      24     
iter:  22  07:18:29  -1.80  -1.47  -300.913078    3      28     
iter:  23  07:19:02  -2.19  -1.55  -300.075360    2      21     
iter:  24  07:19:33  -2.61  -1.59  -300.063748    3      14     
iter:  25  07:20:06  -2.06  -1.60  -301.159208    3      24     
iter:  26  07:20:39  -1.89  -1.57  -301.646845    3      28     
iter:  27  07:21:12  -1.58  -1.56  -307.445589    3      30     
iter:  28  07:21:46  -1.34  -1.44  -302.526461    3      29     
iter:  29  07:22:18  -1.30  -1.60  -303.968990    3      26     
iter:  30  07:22:51  -1.52  -1.52  -300.418012    4      21     
iter:  31  07:23:23  -2.27  -1.65  -300.108642    3      22     
iter:  32  07:23:55  -2.51  -1.68  -300.080655    3      19     
iter:  33  07:24:28  -2.12  -1.70  -301.867574    3      25     
iter:  34  07:25:01  -1.73  -1.60  -302.683171    3      28     
iter:  35  07:25:33  -1.69  -1.59  -301.043212    3      21     
iter:  36  07:26:07  -1.82  -1.67  -303.425452    3      28     
iter:  37  07:26:40  -1.72  -1.57  -300.622636    4      27     
iter:  38  07:27:11  -2.31  -1.69  -299.940164    3      16     
iter:  39  07:27:44  -2.63  -1.77  -300.502109    3      21     
iter:  40  07:28:16  -2.28  -1.72  -300.747656    3      25     
iter:  41  07:28:48  -1.95  -1.72  -301.575108    3      14     
iter:  42  07:29:21  -1.76  -1.67  -304.098631    3      28     
iter:  43  07:29:54  -1.76  -1.57  -300.503761    4      28     
iter:  44  07:30:26  -2.21  -1.75  -300.029925    3      20     
iter:  45  07:30:57  -2.86  -1.80  -299.990819    3      10     
iter:  46  07:31:29  -2.72  -1.82  -300.101031    3      14     
iter:  47  07:32:02  -2.10  -1.82  -302.312671    3      24     
iter:  48  07:32:34  -1.70  -1.67  -302.739359    3      26     
iter:  49  07:33:08  -1.72  -1.74  -302.729100    3      28     
iter:  50  07:33:40  -1.60  -1.69  -301.989471    3      26     
iter:  51  07:34:12  -1.72  -1.73  -300.443792    3      14     
iter:  52  07:34:44  -2.36  -1.94  -299.968920    3      19     
iter:  53  07:35:16  -2.68  -2.02  -300.403782    3      22     
iter:  54  07:35:49  -2.16  -1.92  -301.176802    3      25     
iter:  55  07:36:22  -2.08  -1.85  -300.990541    3      26     
iter:  56  07:36:55  -2.33  -1.84  -300.009992    3      24     
iter:  57  07:37:26  -2.55  -2.04  -300.185560    3      14     
iter:  58  07:37:59  -2.40  -2.05  -300.119119    3      21     
iter:  59  07:38:30  -2.50  -2.03  -300.263815    3      16     
iter:  60  07:39:03  -2.39  -2.00  -300.434119    3      23     
iter:  61  07:39:36  -2.33  -1.97  -301.133756    3      25     
iter:  62  07:40:08  -2.37  -1.84  -299.962392    3      25     
iter:  63  07:40:40  -2.90  -2.12  -299.955088    3      14     
iter:  64  07:41:11  -2.89  -2.14  -299.970543    3      12     
iter:  65  07:41:43  -3.06  -2.14  -300.016073    2      17     
iter:  66  07:42:16  -2.82  -2.12  -300.136338    3      21     
iter:  67  07:42:48  -2.48  -2.10  -301.078560    3      24     
iter:  68  07:43:21  -2.34  -1.89  -300.013628    3      24     
iter:  69  07:43:53  -2.74  -2.14  -300.074266    3      20     
iter:  70  07:44:25  -2.90  -2.11  -299.911059    3      16     
iter:  71  07:44:56  -3.61  -2.22  -299.896418    2      10     
iter:  72  07:45:27  -3.43  -2.25  -299.955579    3      11     
iter:  73  07:46:00  -2.84  -2.22  -300.396400    3      22     
iter:  74  07:46:32  -2.65  -2.06  -300.027037    3      21     
iter:  75  07:47:04  -2.82  -2.19  -300.140901    3      17     
iter:  76  07:47:36  -2.62  -2.15  -300.012576    3      21     
iter:  77  07:48:08  -2.97  -2.20  -299.977444    3      15     
iter:  78  07:48:39  -3.38  -2.26  -299.911994    3      12     
iter:  79  07:49:10  -3.69  -2.32  -299.915774    2      9      
iter:  80  07:49:41  -3.29  -2.33  -299.949015    3      8      
iter:  81  07:50:14  -2.81  -2.31  -300.576334    3      23     
iter:  82  07:50:46  -2.62  -2.01  -300.089098    2      23     
iter:  83  07:51:18  -2.84  -2.22  -300.039385    3      20     
iter:  84  07:51:49  -2.89  -2.27  -299.937681    3      11     
iter:  85  07:52:21  -3.13  -2.34  -299.967028    3      12     
iter:  86  07:52:53  -3.31  -2.35  -299.895026    3      15     
iter:  87  07:53:24  -3.45  -2.44  -299.972108    3      14     
iter:  88  07:53:56  -3.36  -2.39  -299.898363    3      14     
iter:  89  07:54:27  -3.51  -2.47  -299.989866    3      17     
iter:  90  07:54:59  -2.99  -2.35  -300.100562    2      18     
iter:  91  07:55:31  -2.84  -2.27  -299.998068    3      13     
iter:  92  07:56:03  -2.86  -2.41  -299.970081    2      20     
iter:  93  07:56:35  -3.08  -2.38  -300.002195    2      16     
iter:  94  07:57:06  -3.15  -2.43  -299.919790    3      13     
iter:  95  07:57:38  -3.84  -2.56  -299.913235    2      12     
iter:  96  07:58:09  -3.78  -2.59  -299.933631    2      11     
iter:  97  07:58:40  -3.72  -2.55  -299.930317    3      13     
iter:  98  07:59:13  -2.96  -2.68  -300.178183    2      21     
iter:  99  07:59:45  -2.90  -2.20  -299.966837    2      21     
iter: 100  08:00:17  -3.26  -2.54  -299.941774    3      18     
iter: 101  08:00:48  -3.46  -2.54  -299.906701    3      14     
iter: 102  08:01:19  -4.23  -2.77  -299.900875    2      5      
iter: 103  08:01:50  -4.66  -2.84  -299.902929    2      6      
iter: 104  08:02:21  -4.32  -2.82  -299.901457    2      11     
iter: 105  08:02:53  -4.03  -2.80  -299.927637    3      15     
iter: 106  08:03:24  -4.02  -2.64  -299.904794    2      14     
iter: 107  08:03:55  -3.92  -2.84  -299.929110    3      12     
iter: 108  08:04:27  -3.71  -2.75  -299.897907    3      10     
iter: 109  08:04:57  -4.38  -2.89  -299.902863    2      6      
iter: 110  08:05:28  -4.50  -2.89  -299.902196    2      9      
iter: 111  08:05:59  -4.39  -2.90  -299.912885    2      12     
iter: 112  08:06:31  -4.20  -2.81  -299.899905    2      13     
iter: 113  08:07:02  -4.25  -2.91  -299.901896    2      7      
iter: 114  08:07:32  -3.80  -2.94  -299.915580    3      7      
iter: 115  08:08:04  -4.03  -2.85  -299.906646    3      11     
iter: 116  08:08:35  -4.31  -2.90  -299.906542    2      13     
iter: 117  08:09:06  -4.35  -2.92  -299.909040    2      12     
iter: 118  08:09:38  -4.28  -2.95  -299.905778    2      13     
iter: 119  08:10:09  -4.37  -2.99  -299.903104    2      6      
iter: 120  08:10:39  -4.14  -3.03  -299.902709    2      6      
iter: 121  08:11:10  -4.21  -2.97  -299.904053    3      10     
iter: 122  08:11:41  -4.66  -3.05  -299.902836    2      8      
iter: 123  08:12:12  -4.63  -3.17  -299.907344    2      10     
iter: 124  08:12:44  -4.14  -3.01  -299.913945    2      13     
iter: 125  08:13:15  -4.19  -2.85  -299.900540    2      13     
iter: 126  08:13:46  -4.53  -3.08  -299.900135    2      5      
iter: 127  08:14:16  -4.85  -3.16  -299.901711    2      5      
iter: 128  08:14:47  -5.01  -3.23  -299.902156    2      7      
iter: 129  08:15:18  -4.50  -3.21  -299.906820    2      10     
iter: 130  08:15:49  -4.45  -2.97  -299.900616    2      11     
iter: 131  08:16:20  -5.04  -3.18  -299.899154    2      7      
iter: 132  08:16:51  -5.17  -3.30  -299.900447    2      4      
iter: 133  08:17:21  -5.14  -3.28  -299.901844    2      4      
iter: 134  08:17:52  -5.15  -3.30  -299.900681    2      5      
iter: 135  08:18:22  -5.27  -3.27  -299.899757    2      4      
iter: 136  08:18:53  -5.45  -3.33  -299.900004    2      6      
iter: 137  08:19:23  -5.39  -3.30  -299.899842    2      6      
iter: 138  08:19:54  -5.48  -3.31  -299.900561    2      4      
iter: 139  08:20:24  -5.73  -3.37  -299.900082    2      4      
iter: 140  08:20:55  -5.74  -3.38  -299.899123    2      3      
iter: 141  08:21:25  -5.65  -3.39  -299.900364    2      3      
iter: 142  08:21:55  -5.62  -3.41  -299.900550    2      5      
iter: 143  08:22:26  -5.23  -3.36  -299.902010    2      5      
iter: 144  08:22:56  -4.88  -3.42  -299.899401    2      5      
iter: 145  08:23:27  -5.02  -3.38  -299.901553    2      5      
iter: 146  08:23:58  -4.94  -3.36  -299.902687    2      5      
iter: 147  08:24:28  -4.86  -3.53  -299.898940    3      5      
iter: 148  08:24:59  -5.10  -3.43  -299.899823    2      7      
iter: 149  08:25:29  -5.31  -3.41  -299.899574    2      5      
iter: 150  08:26:00  -5.29  -3.67  -299.901218    2      5      
iter: 151  08:26:30  -5.36  -3.53  -299.900042    2      4      
iter: 152  08:27:01  -5.80  -3.61  -299.899630    2      4      
iter: 153  08:27:31  -5.56  -3.76  -299.901515    2      4      
iter: 154  08:28:02  -5.61  -3.69  -299.900274    2      3      
iter: 155  08:28:32  -5.91  -3.85  -299.900020    2      4      
iter: 156  08:29:02  -5.71  -3.87  -299.900028    2      3      
iter: 157  08:29:33  -5.88  -3.82  -299.900429    2      3      
iter: 158  08:30:03  -5.94  -3.93  -299.900114    2      4      
iter: 159  08:30:34  -5.99  -3.80  -299.900014    2      3      
iter: 160  08:31:04  -6.91  -3.99  -299.900091    2      2      
iter: 161  08:31:34  -6.81  -4.06  -299.899877    2      3      
iter: 162  08:32:04  -6.49  -4.01  -299.900331    2      2      
iter: 163  08:32:35  -6.48  -4.04  -299.899969    2      3      
iter: 164  08:33:05  -6.65  -4.00  -299.900087    2      2      
iter: 165  08:33:35  -7.05  -4.11  -299.900054    2      2      
iter: 166  08:34:05  -7.09  -4.09  -299.900053    2      2      
iter: 167  08:34:35  -7.24  -4.13  -299.899967    2      2      
iter: 168  08:35:06  -6.82  -4.14  -299.900205    2      2      
iter: 169  08:35:36  -6.58  -4.11  -299.899896    2      3      
iter: 170  08:36:06  -6.57  -4.07  -299.900132    2      3      
iter: 171  08:36:37  -6.83  -4.18  -299.900215    2      3      
iter: 172  08:37:07  -6.70  -4.10  -299.900093    2      2      
iter: 173  08:37:37  -7.08  -4.18  -299.900124    2      2      
iter: 174  08:38:08  -6.72  -4.19  -299.900072    2      3      
iter: 175  08:38:38  -6.45  -4.17  -299.899825    2      3      
iter: 176  08:39:08  -6.31  -4.17  -299.900281    2      3      
iter: 177  08:39:38  -6.63  -4.26  -299.900248    2      2      
iter: 178  08:40:09  -6.57  -4.18  -299.900099    2      3      
iter: 179  08:40:39  -6.55  -4.13  -299.900201    2      3      
iter: 180  08:41:09  -7.08  -4.27  -299.900178    2      2      
iter: 181  08:41:40  -6.49  -4.39  -299.899895    2      3      
iter: 182  08:42:10  -6.39  -4.15  -299.900195    2      3      
iter: 183  08:42:40  -7.18  -4.38  -299.900142    2      2      
iter: 184  08:43:10  -6.97  -4.44  -299.900177    2      2      
iter: 185  08:43:41  -6.97  -4.37  -299.900070    2      2      
iter: 186  08:44:11  -7.05  -4.44  -299.900214    2      2      
iter: 187  08:44:41  -7.09  -4.37  -299.900098    2      2      
iter: 188  08:45:11  -7.73  -4.47  -299.900097    2      1      

Converged after 188 iterations.

Dipole moment: (-28.167903, -6.794331, 11.814888) |e|*Ang

Energy contributions relative to reference atoms: (reference = -648925.267931)

Kinetic:       +211.984536
Potential:     -244.115751
External:        +0.000000
XC:            -280.248303
Entropy (-ST):   -2.827687
Local:          +13.893264
--------------------------
Free energy:   -301.313940
Extrapolated:  -299.900097

Fermi level: 1.55926

 Band  Eigenvalues  Occupancy
    0    -22.59462    2.00000
    1    -22.39501    2.00000
    2    -22.33300    2.00000
    3    -22.25972    2.00000
    4    -22.17305    2.00000
    5    -22.15995    2.00000
    6    -22.07507    2.00000
    7    -22.06527    2.00000
    8    -22.02057    2.00000
    9    -21.92034    2.00000
   10    -21.87469    2.00000
   11    -21.83026    2.00000
   12    -21.70718    2.00000
   13    -21.63422    2.00000
   14    -21.50134    2.00000
   15    -21.48705    2.00000
   16    -21.45884    2.00000
   17    -21.44951    2.00000
   18    -21.42637    2.00000
   19    -21.40174    2.00000
   20    -21.37045    2.00000
   21    -21.31342    2.00000
   22    -21.29439    2.00000
   23    -21.27034    2.00000
   24    -21.25121    2.00000
   25    -21.21928    2.00000
   26    -21.20811    2.00000
   27    -21.19446    2.00000
   28    -21.13424    2.00000
   29    -21.07711    2.00000
   30    -21.07531    2.00000
   31    -20.95892    2.00000
   32    -17.23570    2.00000
   33    -17.18575    2.00000
   34    -17.17002    2.00000
   35    -16.86874    2.00000
   36     -5.56692    2.00000
   37     -5.49614    2.00000
   38     -5.39238    2.00000
   39     -5.31641    2.00000
   40     -5.23828    2.00000
   41     -5.15936    2.00000
   42     -5.14132    2.00000
   43     -5.09315    2.00000
   44     -4.97227    2.00000
   45     -4.95599    2.00000
   46     -4.83642    2.00000
   47     -4.75761    2.00000
   48     -4.71968    2.00000
   49     -4.64894    2.00000
   50     -4.57981    2.00000
   51     -4.54077    2.00000
   52     -4.53021    2.00000
   53     -4.48863    2.00000
   54     -4.47920    2.00000
   55     -4.46967    2.00000
   56     -4.45265    2.00000
   57     -4.41625    2.00000
   58     -4.40064    2.00000
   59     -4.35467    2.00000
   60     -4.34634    2.00000
   61     -4.31487    2.00000
   62     -4.30743    2.00000
   63     -4.26646    2.00000
   64     -4.24993    2.00000
   65     -4.20193    2.00000
   66     -4.18198    2.00000
   67     -4.17279    2.00000
   68     -4.15590    2.00000
   69     -4.12658    2.00000
   70     -4.11114    2.00000
   71     -4.08716    2.00000
   72     -4.05786    2.00000
   73     -4.05271    2.00000
   74     -4.01324    2.00000
   75     -3.98865    2.00000
   76     -3.94074    2.00000
   77     -3.89163    2.00000
   78     -3.87515    2.00000
   79     -3.84840    2.00000
   80     -3.82721    2.00000
   81     -3.77011    2.00000
   82     -3.70703    2.00000
   83     -3.59981    2.00000
   84     -3.58288    2.00000
   85     -3.54538    2.00000
   86     -3.52581    2.00000
   87     -3.52119    2.00000
   88     -3.49724    2.00000
   89     -3.47257    2.00000
   90     -3.45463    2.00000
   91     -3.42561    2.00000
   92     -3.33375    2.00000
   93     -3.29394    2.00000
   94     -3.28590    2.00000
   95     -3.23068    2.00000
   96     -3.19537    2.00000
   97     -3.16262    2.00000
   98     -3.14780    2.00000
   99     -3.12180    2.00000
  100     -3.08241    2.00000
  101     -3.05297    2.00000
  102     -2.98675    2.00000
  103     -2.94909    2.00000
  104     -2.91320    2.00000
  105     -2.90850    2.00000
  106     -2.85711    2.00000
  107     -2.81502    2.00000
  108     -2.77849    2.00000
  109     -2.75275    2.00000
  110     -2.70667    2.00000
  111     -2.69070    2.00000
  112     -2.67266    2.00000
  113     -2.65657    2.00000
  114     -2.60197    2.00000
  115     -2.53890    2.00000
  116     -2.52819    2.00000
  117     -2.48038    2.00000
  118     -2.45668    2.00000
  119     -2.44200    2.00000
  120     -2.42290    2.00000
  121     -2.39653    2.00000
  122     -2.35700    2.00000
  123     -2.32109    2.00000
  124     -2.29959    2.00000
  125     -2.28564    2.00000
  126     -2.24470    2.00000
  127     -2.22298    2.00000
  128     -2.17230    2.00000
  129     -2.16349    2.00000
  130     -2.15040    2.00000
  131     -2.11909    2.00000
  132     -2.10497    2.00000
  133     -2.08181    2.00000
  134     -2.04318    2.00000
  135     -2.00110    2.00000
  136     -1.98020    2.00000
  137     -1.94227    2.00000
  138     -1.90010    2.00000
  139     -1.87814    2.00000
  140     -1.82328    2.00000
  141     -1.80014    2.00000
  142     -1.74552    2.00000
  143     -1.69136    2.00000
  144      0.66641    1.99973
  145      0.69398    1.99965
  146      0.74631    1.99941
  147      0.79415    1.99905
  148      0.84371    1.99844
  149      0.88216    1.99771
  150      0.91216    1.99691
  151      0.92341    1.99654
  152      0.94387    1.99576
  153      0.97408    1.99427
  154      0.98838    1.99339
  155      1.00271    1.99237
  156      1.00356    1.99231
  157      1.02292    1.99067
  158      1.04578    1.98829
  159      1.06404    1.98596
  160      1.08578    1.98258
  161      1.11741    1.97618
  162      1.12336    1.97474
  163      1.14224    1.96957
  164      1.17165    1.95938
  165      1.17226    1.95914
  166      1.18126    1.95538
  167      1.18587    1.95332
  168      1.20146    1.94566
  169      1.20766    1.94228
  170      1.22058    1.93458
  171      1.23582    1.92422
  172      1.24284    1.91893
  173      1.25315    1.91053
  174      1.25857    1.90578
  175      1.27346    1.89147
  176      1.29749    1.86398
  177      1.33040    1.81587
  178      1.35334    1.77376
  179      1.37525    1.72594
  180      1.38705    1.69680
  181      1.40108    1.65893
  182      1.42848    1.57431
  183      1.43310    1.55863
  184      1.45071    1.49507
  185      1.46338    1.44578
  186      1.48729    1.34508
  187      1.51226    1.23080
  188      1.56050    0.99381
  189      1.56656    0.96355
  190      1.59022    0.84643
  191      1.64351    0.60204
  192      1.66765    0.50555
  193      1.69389    0.41298
  194      1.70796    0.36875
  195      1.71203    0.35668
  196      1.78485    0.18970
  197      1.80985    0.15090
  198      1.85935    0.09478
  199      1.87511    0.08152
  200      1.89123    0.06980
  201      1.91370    0.05615
  202      1.93554    0.04539
  203      1.99278    0.02586
  204      2.07923    0.01098
  205      2.13693    0.00618
  206      2.19228    0.00356
  207      2.21512    0.00283
  208      2.26188    0.00178
  209      2.39701    0.00046
  210      2.40377    0.00043
  211      2.45371    0.00026
  212      2.49519    0.00017
  213      2.52411    0.00013
  214      2.57186    0.00008
  215      2.66995    0.00003
  216      2.74259    0.00001
  217      2.75348    0.00001
  218      2.82420    0.00001
  219      2.88135    0.00000
  220      2.94062    0.00000
  221      2.95403    0.00000
  222      3.01655    0.00000
  223      3.06108    0.00000
  224      4.90583    0.00000
  225      5.68931    0.00000
  226      6.26128    0.00000
  227      6.78300    0.00000
  228      7.32041    0.00000
  229      7.65483    0.00000
  230      7.81755    0.00000
  231      7.96900    0.00000
  232      8.19627    0.00000
  233      8.47942    0.00000
  234      8.66044    0.00000
  235      8.89974    0.00000
  236      9.92539    0.00000
  237     10.01300    0.00000
  238     10.04419    0.00000
  239     10.10433    0.00000
  240     10.43197    0.00000
  241     10.71841    0.00000
  242     10.75748    0.00000
  243     10.86573    0.00000
  244     10.94657    0.00000
  245     10.96213    0.00000
  246     11.02846    0.00000
  247     11.20998    0.00000
  248     11.33232    0.00000
  249     11.39530    0.00000
  250     11.50668    0.00000
  251     11.58141    0.00000
  252     11.72780    0.00000
  253     11.87727    0.00000
  254     11.88935    0.00000
  255     11.95941    0.00000
  256     12.02811    0.00000
  257     12.12494    0.00000
  258     12.23716    0.00000
  259     12.28716    0.00000
  260     12.32379    0.00000
  261     12.37739    0.00000
  262     12.46651    0.00000
  263     12.51869    0.00000
  264     12.53187    0.00000
  265     12.57787    0.00000
  266     12.66435    0.00000
  267     12.70309    0.00000
  268     12.76241    0.00000
  269     12.83583    0.00000
  270     12.95624    0.00000
  271     13.00992    0.00000
  272     13.12423    0.00000
  273     13.19740    0.00000
  274     13.24846    0.00000
  275     13.30964    0.00000
  276     13.35746    0.00000
  277     13.40389    0.00000
  278     13.46515    0.00000
  279     13.58083    0.00000
  280     13.73873    0.00000
  281     14.03333    0.00000
  282     14.07156    0.00000
  283     14.16553    0.00000
  284     14.37614    0.00000
  285     14.41905    0.00000
  286     14.50041    0.00000
  287     14.59460    0.00000

Timing:                              incl.     excl.
-----------------------------------------------------------
Hamiltonian:                         4.975     0.000   0.0% |
 Atomic:                             2.320     0.005   0.0% |
  XC Correction:                     2.316     2.316   0.0% |
 Calculate atomic Hamiltonians:      0.027     0.027   0.0% |
 Communicate:                        0.000     0.000   0.0% |
 Hartree integrate/restrict:         0.015     0.015   0.0% |
 Initialize Hamiltonian:             0.000     0.000   0.0% |
 Poisson:                            1.989     1.989   0.0% |
 XC 3D grid:                         0.619     0.619   0.0% |
 vbar:                               0.005     0.005   0.0% |
LCAO initialization:                18.949     0.225   0.0% |
 LCAO eigensolver:                   2.012     0.000   0.0% |
  Calculate projections:             0.022     0.022   0.0% |
  DenseAtomicCorrection:             0.021     0.021   0.0% |
  Distribute overlap matrix:         0.000     0.000   0.0% |
  Orbital Layouts:                   0.058     0.058   0.0% |
  Potential matrix:                  1.910     1.910   0.0% |
 LCAO to grid:                      15.550    15.550   0.3% |
 Set positions (LCAO WFS):           1.162     0.000   0.0% |
  Basic WFS set positions:           0.001     0.001   0.0% |
  Basis functions set positions:     0.000     0.000   0.0% |
  TCI: Calculate S, T, P:            1.161     1.161   0.0% |
SCF-cycle:                        5917.248     0.147   0.0% |
 Davidson:                        5058.227   649.959  10.9% |---|
  Apply hamiltonian:               118.652   118.652   2.0% ||
  Subspace diag:                  1523.117     0.030   0.0% |
   calc_h_matrix:                  588.223   469.469   7.9% |--|
    Apply hamiltonian:             118.754   118.754   2.0% ||
   diagonalize:                      3.837     3.837   0.1% |
   rotate_psi:                     931.028   931.028  15.7% |-----|
  calc. matrices:                 1813.892  1695.057  28.5% |----------|
   Apply hamiltonian:              118.836   118.836   2.0% ||
  diagonalize:                      16.863    16.863   0.3% |
  rotate_psi:                      935.744   935.744  15.7% |-----|
 Density:                           17.405     0.005   0.0% |
  Atomic density matrices:           1.016     1.016   0.0% |
  Mix:                               7.964     7.964   0.1% |
  Multipole moments:                 0.212     0.212   0.0% |
  Pseudo density:                    8.208     8.204   0.1% |
   Symmetrize density:               0.004     0.004   0.0% |
 Hamiltonian:                      836.216     0.020   0.0% |
  Atomic:                          429.687     0.853   0.0% |
   XC Correction:                  428.833   428.833   7.2% |--|
  Calculate atomic Hamiltonians:     5.022     5.022   0.1% |
  Communicate:                       0.001     0.001   0.0% |
  Hartree integrate/restrict:        2.816     2.816   0.0% |
  Poisson:                         282.329   282.329   4.8% |-|
  XC 3D grid:                      115.386   115.386   1.9% ||
  vbar:                              0.956     0.956   0.0% |
 Orthonormalize:                     5.252     0.000   0.0% |
  calc_s_matrix:                     1.530     1.530   0.0% |
  inverse-cholesky:                  0.004     0.004   0.0% |
  projections:                       1.166     1.166   0.0% |
  rotate_psi_s:                      2.551     2.551   0.0% |
Set symmetry:                        0.001     0.001   0.0% |
Other:                               1.267     1.267   0.0% |
-----------------------------------------------------------
Total:                                      5942.439 100.0%

Memory usage: 1.06 GiB
Date: Mon Jan 28 08:45:11 2019
