
  ___ ___ ___ _ _ _  
 |   |   |_  | | | | 
 | | | | | . | | | | 
 |__ |  _|___|_____|  1.4.0
 |___|_|             

User:   murakami@tssm1.eng.shizuoka.ac.jp
Date:   Mon Jan 28 05:23:15 2019
Arch:   x86_64
Pid:    19793
Python: 3.6.5
gpaw:   /home/murakami/.local/lib/python3.6/site-packages/gpaw
_gpaw:  /home/murakami/.local/lib/python3.6/site-packages/
        _gpaw.cpython-36m-x86_64-linux-gnu.so
ase:    /home/murakami/.local/lib/python3.6/site-packages/ase (version 3.16.2)
numpy:  /home/murakami/.local/lib/python3.6/site-packages/numpy (version 1.15.2)
scipy:  /home/murakami/.local/lib/python3.6/site-packages/scipy (version 1.1.0)
units:  Angstrom and eV
cores:  1

Input parameters:
  kpts: {size: (1, 1, 1)}
  maxiter: 300
  xc: PBE

System changes: positions, numbers, cell, pbc, initial_charges, initial_magmoms 

Initialize ...

Fe-setup:
  name: Iron
  id: 37abbd8d6c3c35915a9b583b742da910
  Z: 26
  valence: 8
  core: 18
  charge: 0.0
  file: /home/murakami/Public/gpaw-setups-0.9.20000/Fe.PBE.gz
  cutoffs: 1.06(comp), 2.06(filt), 2.67(core), lmax=2
  valence states:
                energy  radius
    4s(2.00)    -5.291   1.164
    4p(0.00)    -1.326   1.058
    3d(6.00)    -7.505   1.058
    *s          21.920   1.164
    *p          25.885   1.058
    *d          19.706   1.058

  Using partial waves for Fe as LCAO basis

O-setup:
  name: Oxygen
  id: 32ecd46bf208036f09c70b0ec9a88b78
  Z: 8
  valence: 6
  core: 2
  charge: 0.0
  file: /home/murakami/Public/gpaw-setups-0.9.20000/O.PBE.gz
  cutoffs: 0.67(comp), 1.17(filt), 0.83(core), lmax=2
  valence states:
                energy  radius
    2s(2.00)   -23.961   0.688
    2p(4.00)    -9.029   0.598
    *s           3.251   0.688
    *p          18.182   0.598
    *d           0.000   0.619

  Using partial waves for O as LCAO basis

F-setup:
  name: Fluorine
  id: 9cd46ba2a61e170ad72278be75b55cc0
  Z: 9
  valence: 7
  core: 2
  charge: 0.0
  file: /home/murakami/Public/gpaw-setups-0.9.20000/F.PBE.gz
  cutoffs: 0.64(comp), 1.14(filt), 0.74(core), lmax=2
  valence states:
                energy  radius
    2s(2.00)   -29.898   0.635
    2p(5.00)   -11.110   0.635
    *s          -2.687   0.635
    *p          16.102   0.635
    *d           0.000   0.635

  Using partial waves for F as LCAO basis

Reference energy: -319034.472395

Spin-paired calculation

Occupation numbers:
  Fermi-Dirac: width=0.1000 eV

Convergence criteria:
  Maximum total energy change: 0.0005 eV / electron
  Maximum integral of absolute density change: 0.0001 electrons
  Maximum integral of absolute eigenstate change: 4e-08 eV^2
  Maximum number of iterations: 300

Symmetries present (total): 1

  ( 1  0  0)
  ( 0  1  0)
  ( 0  0  1)

1 k-point (Gamma)
1 k-point in the irreducible part of the Brillouin zone
       k-points in crystal coordinates                weights
   0:     0.00000000    0.00000000    0.00000000          1/1

Wave functions: Uniform real-space grid
  Kinetic energy operator: 8*3+1=25 point O(h^6) finite-difference Laplacian
  ScaLapack parameters: grid=1x1, blocksize=None 

Eigensolver
   Davidson(niter=1, smin=None, normalize=True) 

Densities:
  Coarse grid: 28*24*52 grid
  Fine grid: 56*48*104 grid
  Total Charge: 0.000000 

Density mixing:
  Method: separate
  Backend: pulay
  Linear mixing parameter: 0.05
  Mixing with 5 old densities
  Damping of long wave oscillations: 50 

Hamiltonian:
  XC and Coulomb potentials evaluated on a 56*48*104 grid
  Using the PBE Exchange-Correlation functional
  Interpolation: tri-quintic (5. degree polynomial)
  Poisson solver: Jacobi solver with 4 multi-grid levels
    Coarsest grid: 7 x 6 x 13 points
    Stencil: 8*3+1=25 point O(h^6) finite-difference Laplacian
    Max iterations: 1000
    Tolerance: 2.000000e-10 

Memory estimate:
  Process memory now: 307.14 MiB
  Calculator: 140.46 MiB
    Density: 46.49 MiB
      Arrays: 6.93 MiB
      Localized functions: 36.90 MiB
      Mixer: 2.67 MiB
    Hamiltonian: 12.49 MiB
      Arrays: 4.53 MiB
      XC: 0.00 MiB
      Poisson: 5.17 MiB
      vbar: 2.79 MiB
    Wavefunctions: 81.47 MiB
      Arrays psit_nG: 36.26 MiB
      Eigensolver: 39.01 MiB
      Projections: 0.37 MiB
      Projectors: 5.84 MiB

Total number of cores used: 1

Number of atoms: 24
Number of atomic orbitals: 136
Number of bands in calculation: 136
Bands to converge: occupied states only
Number of valence electrons: 174

... initialized

Initializing position-dependent things.

Density initialized from atomic densities
Creating initial wave functions:
  136 bands from LCAO basis set

                                 
                                 
                                 
                                 
                Fe               
                     O           
                      Fe         
          FF   F    Fe           
                      F          
           Fe                    
           F       F             
              F        Fe        
               Fe                
                                 
             FeF FO   F          
                                 
       F          Fe             
            F     F              
                                 
                                 
                                 
                                 
                                 

Positions:
   0 Fe     1.416738    1.189211    7.917880    ( 0.0000,  0.0000,  0.0000)
   1 Fe     1.416738    3.596231    2.484800    ( 0.0000,  0.0000,  0.0000)
   2 Fe     2.953178    1.172318    4.954164    ( 0.0000,  0.0000,  0.0000)
   3 Fe     2.953178    3.613124   10.463944    ( 0.0000,  0.0000,  0.0000)
   4 Fe     4.323386    1.106753    2.287094    ( 0.0000,  0.0000,  0.0000)
   5 Fe     4.323386    3.678689    7.729077    ( 0.0000,  0.0000,  0.0000)
   6 Fe     5.681193    1.155072   10.063461    ( 0.0000,  0.0000,  0.0000)
   7 Fe     5.681193    3.630370    4.632470    ( 0.0000,  0.0000,  0.0000)
   8 O      4.465826    0.279843    3.926077    ( 0.0000,  0.0000,  0.0000)
   9 O      4.504606    4.505599    9.362717    ( 0.0000,  0.0000,  0.0000)
  10 F      0.078582    0.275431    1.978610    ( 0.0000,  0.0000,  0.0000)
  11 F      0.078582    4.510011    7.420593    ( 0.0000,  0.0000,  0.0000)
  12 F      1.274802    2.150774    6.118300    ( 0.0000,  0.0000,  0.0000)
  13 F      1.303132    2.634668    0.591089    ( 0.0000,  0.0000,  0.0000)
  14 F      1.601658    0.247632    9.814751    ( 0.0000,  0.0000,  0.0000)
  15 F      1.601658    4.529890    4.372768    ( 0.0000,  0.0000,  0.0000)
  16 F      2.763996    2.170342    3.056782    ( 0.0000,  0.0000,  0.0000)
  17 F      2.763996    2.615100    8.498765    ( 0.0000,  0.0000,  0.0000)
  18 F      2.997224    0.170362    6.924657    ( 0.0000,  0.0000,  0.0000)
  19 F      2.997224    4.653952    1.482674    ( 0.0000,  0.0000,  0.0000)
  20 F      4.143358    2.098211    0.420612    ( 0.0000,  0.0000,  0.0000)
  21 F      4.143358    2.665395    5.862595    ( 0.0000,  0.0000,  0.0000)
  22 F      5.556976    2.184578    8.154929    ( 0.0000,  0.0000,  0.0000)
  23 F      5.583533    2.600864    2.709287    ( 0.0000,  0.0000,  0.0000)

Unit cell:
           periodic     x           y           z      points  spacing
  1. axis:    yes    5.735919    0.000000   -0.790267    28     0.2049
  2. axis:    yes    0.000000    4.785442    0.000000    24     0.1994
  3. axis:    yes    0.000000    0.000000   10.883966    52     0.2073

  Lengths:   5.790103   4.785442  10.883966
  Angles:   90.000000  97.844547  90.000000

Effective grid spacing dv^(1/3) = 0.2045

                     log10-error:    total        iterations:
           time      wfs    density  energy       fermi  poisson
iter:   1  05:23:25  +1.56   +inf  -150.084294    3      17     
iter:   2  05:23:28  +0.21   +inf  -150.728761    3             
iter:   3  05:23:31  -0.39   +inf  -150.913973    2             
iter:   4  05:23:35  -0.63  -1.14  -149.195421    3      8      
iter:   5  05:23:40  -0.39  -1.18  -157.822061    4      13     
iter:   6  05:23:44  -0.28  -1.17  -148.570516    2      14     
iter:   7  05:23:49  -0.63  -1.34  -146.137114    4      13     
iter:   8  05:23:53  -1.42  -1.43  -145.845575    4      11     
iter:   9  05:23:58  -1.49  -1.44  -146.161266    4      12     
iter:  10  05:24:02  -1.53  -1.42  -146.065348    4      13     
iter:  11  05:24:07  -1.41  -1.43  -146.422114    4      13     
iter:  12  05:24:11  -1.40  -1.43  -145.847774    4      12     
iter:  13  05:24:16  -1.72  -1.47  -145.682119    3      11     
iter:  14  05:24:20  -1.56  -1.50  -145.932639    4      9      
iter:  15  05:24:25  -1.28  -1.54  -147.182326    3      13     
iter:  16  05:24:29  -1.30  -1.44  -146.982315    4      14     
iter:  17  05:24:34  -1.39  -1.48  -145.763717    4      13     
iter:  18  05:24:38  -1.23  -1.68  -147.026308    4      12     
iter:  19  05:24:43  -1.13  -1.58  -146.584561    3      13     
iter:  20  05:24:47  -1.48  -1.62  -145.590952    3      12     
iter:  21  05:24:52  -1.87  -1.77  -145.690782    3      11     
iter:  22  05:24:56  -2.15  -1.76  -145.477430    3      11     
iter:  23  05:25:01  -2.76  -1.81  -145.388698    3      9      
iter:  24  05:25:05  -2.54  -1.84  -145.446328    2      9      
iter:  25  05:25:10  -2.28  -1.84  -145.469534    3      8      
iter:  26  05:25:14  -2.31  -1.85  -145.522867    3      11     
iter:  27  05:25:19  -2.05  -1.83  -145.656221    3      11     
iter:  28  05:25:23  -1.93  -1.83  -145.985177    3      13     
iter:  29  05:25:28  -1.71  -1.81  -145.674927    3      13     
iter:  30  05:25:32  -2.06  -1.83  -145.607605    3      12     
iter:  31  05:25:37  -2.09  -1.94  -145.505343    3      9      
iter:  32  05:25:41  -2.36  -1.93  -145.488492    3      10     
iter:  33  05:25:45  -2.66  -1.98  -145.396919    2      9      
iter:  34  05:25:50  -3.12  -2.04  -145.411993    3      8      
iter:  35  05:25:54  -2.25  -2.08  -145.737923    3      12     
iter:  36  05:25:59  -2.07  -1.92  -145.529937    3      12     
iter:  37  05:26:03  -2.14  -2.06  -145.661499    3      9      
iter:  38  05:26:08  -2.16  -2.04  -145.538389    2      11     
iter:  39  05:26:12  -2.15  -2.13  -145.596578    3      10     
iter:  40  05:26:17  -2.47  -2.05  -145.403441    3      10     
iter:  41  05:26:21  -3.54  -2.33  -145.398767    2      5      
iter:  42  05:26:25  -4.15  -2.35  -145.399251    3      5      
iter:  43  05:26:30  -2.90  -2.37  -145.475913    3      8      
iter:  44  05:26:34  -2.66  -2.38  -145.441110    3      8      
iter:  45  05:26:38  -3.05  -2.45  -145.401520    2      9      
iter:  46  05:26:43  -3.32  -3.01  -145.422674    2      8      
iter:  47  05:26:47  -3.33  -2.63  -145.402903    2      8      
iter:  48  05:26:51  -3.84  -2.96  -145.400157    2      5      
iter:  49  05:26:56  -4.70  -3.24  -145.398774    2      3      
iter:  50  05:27:00  -4.89  -3.27  -145.399485    2      4      
iter:  51  05:27:04  -4.78  -3.31  -145.400056    2      4      
iter:  52  05:27:08  -4.65  -3.29  -145.400534    2      4      
iter:  53  05:27:13  -4.78  -3.25  -145.400315    2      4      
iter:  54  05:27:17  -4.73  -3.46  -145.399983    2      4      
iter:  55  05:27:21  -4.75  -3.33  -145.400601    2      4      
iter:  56  05:27:25  -4.95  -3.60  -145.400071    2      4      
iter:  57  05:27:29  -4.93  -3.50  -145.400353    2      4      
iter:  58  05:27:34  -5.17  -3.65  -145.400448    2      4      
iter:  59  05:27:38  -5.48  -3.96  -145.400919    2      3      
iter:  60  05:27:42  -5.55  -3.89  -145.400184    2      3      
iter:  61  05:27:46  -5.68  -3.93  -145.400653    2      3      
iter:  62  05:27:51  -6.09  -4.10  -145.400539    2      3      
iter:  63  05:27:55  -5.92  -4.04  -145.400611    2      3      
iter:  64  05:27:59  -5.86  -4.06  -145.400216    2      3      
iter:  65  05:28:03  -5.97  -4.10  -145.400361    2      3      
iter:  66  05:28:07  -6.30  -4.22  -145.400416    2      2      
iter:  67  05:28:11  -6.34  -4.37  -145.400355    2      2      
iter:  68  05:28:16  -6.36  -4.20  -145.400460    2      2      
iter:  69  05:28:20  -6.64  -4.37  -145.400040    2      2      
iter:  70  05:28:24  -7.11  -4.56  -145.400518    2      1      
iter:  71  05:28:28  -7.12  -4.54  -145.400734    2      1      
iter:  72  05:28:32  -7.18  -4.57  -145.400310    2      1      
iter:  73  05:28:36  -6.92  -4.58  -145.400557    2      2      
iter:  74  05:28:41  -6.78  -4.52  -145.399921    2      2      
iter:  75  05:28:45  -7.29  -4.58  -145.399834    2      1      
iter:  76  05:28:49  -7.47  -4.74  -145.400243    2      2      

Converged after 76 iterations.

Dipole moment: (-0.639861, 1.673981, -2.148433) |e|*Ang

Energy contributions relative to reference atoms: (reference = -319034.472395)

Kinetic:       +119.364246
Potential:     -133.083374
External:        +0.000000
XC:            -138.667349
Entropy (-ST):   -1.213591
Local:           +7.593029
--------------------------
Free energy:   -146.007039
Extrapolated:  -145.400243

Fermi level: 3.68839

 Band  Eigenvalues  Occupancy
    0    -20.69007    2.00000
    1    -20.58795    2.00000
    2    -20.38339    2.00000
    3    -20.34655    2.00000
    4    -20.27684    2.00000
    5    -20.24076    2.00000
    6    -20.22583    2.00000
    7    -20.19843    2.00000
    8    -20.13425    2.00000
    9    -20.08502    2.00000
   10    -19.96663    2.00000
   11    -19.96177    2.00000
   12    -19.85124    2.00000
   13    -19.77870    2.00000
   14    -14.66730    2.00000
   15    -14.56297    2.00000
   16     -4.19623    2.00000
   17     -3.84256    2.00000
   18     -3.41788    2.00000
   19     -3.28532    2.00000
   20     -3.27437    2.00000
   21     -3.10105    2.00000
   22     -3.03289    2.00000
   23     -3.01055    2.00000
   24     -2.92342    2.00000
   25     -2.87960    2.00000
   26     -2.75580    2.00000
   27     -2.63539    2.00000
   28     -2.62135    2.00000
   29     -2.61428    2.00000
   30     -2.48051    2.00000
   31     -2.46588    2.00000
   32     -2.42766    2.00000
   33     -2.34825    2.00000
   34     -2.33831    2.00000
   35     -2.29182    2.00000
   36     -2.25369    2.00000
   37     -2.22469    2.00000
   38     -2.12309    2.00000
   39     -2.06998    2.00000
   40     -2.03963    2.00000
   41     -2.01099    2.00000
   42     -1.94714    2.00000
   43     -1.92578    2.00000
   44     -1.74588    2.00000
   45     -1.67512    2.00000
   46     -1.49947    2.00000
   47     -1.45603    2.00000
   48     -1.42151    2.00000
   49     -1.31966    2.00000
   50     -1.13870    2.00000
   51     -1.11744    2.00000
   52     -1.02594    2.00000
   53     -1.00697    2.00000
   54     -0.85238    2.00000
   55     -0.82285    2.00000
   56     -0.77134    2.00000
   57     -0.72435    2.00000
   58     -0.56081    2.00000
   59     -0.51198    2.00000
   60     -0.40070    2.00000
   61     -0.32695    2.00000
   62      0.37486    2.00000
   63      0.46731    2.00000
   64      2.90101    1.99924
   65      2.91372    1.99914
   66      2.97627    1.99839
   67      2.99837    1.99799
   68      3.00512    1.99785
   69      3.03007    1.99724
   70      3.07888    1.99550
   71      3.10782    1.99400
   72      3.14149    1.99160
   73      3.15872    1.99003
   74      3.19994    1.98499
   75      3.23853    1.97799
   76      3.26130    1.97245
   77      3.29215    1.96267
   78      3.32008    1.95094
   79      3.36878    1.92137
   80      3.38970    1.90396
   81      3.40633    1.88755
   82      3.43602    1.85157
   83      3.47427    1.78968
   84      3.56245    1.55783
   85      3.57947    1.49644
   86      3.61429    1.35442
   87      3.71393    0.87298
   88      3.72655    0.81147
   89      3.85062    0.32978
   90      3.94504    0.14264
   91      3.95241    0.13319
   92      4.03225    0.06222
   93      4.07797    0.03984
   94      4.15797    0.01810
   95      4.17545    0.01522
   96      4.45191    0.00097
   97      4.48496    0.00069
   98      4.81738    0.00002
   99      4.92962    0.00001
  100      4.99590    0.00000
  101      5.01326    0.00000
  102      5.14096    0.00000
  103      5.29793    0.00000
  104      6.19314    0.00000
  105      7.95187    0.00000
  106      8.48929    0.00000
  107     10.97238    0.00000
  108     11.25301    0.00000
  109     11.33835    0.00000
  110     11.46376    0.00000
  111     11.66829    0.00000
  112     11.94658    0.00000
  113     12.03293    0.00000
  114     12.23104    0.00000
  115     12.84094    0.00000
  116     13.20156    0.00000
  117     13.25095    0.00000
  118     13.65112    0.00000
  119     13.91984    0.00000
  120     14.55627    0.00000
  121     14.96904    0.00000
  122     15.03103    0.00000
  123     15.14228    0.00000
  124     15.32017    0.00000
  125     15.69682    0.00000
  126     15.79905    0.00000
  127     15.85703    0.00000
  128     15.88146    0.00000
  129     15.98187    0.00000
  130     16.08730    0.00000
  131     16.17805    0.00000
  132     16.22102    0.00000
  133     16.32422    0.00000
  134     16.33736    0.00000
  135     16.51891    0.00000

Timing:                              incl.     excl.
-----------------------------------------------------------
Hamiltonian:                         1.913     0.000   0.0% |
 Atomic:                             1.086     0.002   0.0% |
  XC Correction:                     1.084     1.084   0.3% |
 Calculate atomic Hamiltonians:      0.010     0.010   0.0% |
 Communicate:                        0.000     0.000   0.0% |
 Hartree integrate/restrict:         0.004     0.004   0.0% |
 Initialize Hamiltonian:             0.000     0.000   0.0% |
 Poisson:                            0.602     0.602   0.2% |
 XC 3D grid:                         0.210     0.210   0.1% |
 vbar:                               0.002     0.002   0.0% |
LCAO initialization:                 4.404     0.224   0.1% |
 LCAO eigensolver:                   0.915     0.000   0.0% |
  Calculate projections:             0.003     0.003   0.0% |
  DenseAtomicCorrection:             0.003     0.003   0.0% |
  Distribute overlap matrix:         0.000     0.000   0.0% |
  Orbital Layouts:                   0.009     0.009   0.0% |
  Potential matrix:                  0.901     0.901   0.3% |
 LCAO to grid:                       2.641     2.641   0.8% |
 Set positions (LCAO WFS):           0.623     0.000   0.0% |
  Basic WFS set positions:           0.001     0.001   0.0% |
  Basis functions set positions:     0.000     0.000   0.0% |
  TCI: Calculate S, T, P:            0.622     0.622   0.2% |
SCF-cycle:                         327.072     0.058   0.0% |
 Davidson:                         209.231    51.356  15.4% |-----|
  Apply hamiltonian:                 7.896     7.896   2.4% ||
  Subspace diag:                    53.981     0.010   0.0% |
   calc_h_matrix:                   23.069    15.160   4.5% |-|
    Apply hamiltonian:               7.909     7.909   2.4% ||
   diagonalize:                      0.309     0.309   0.1% |
   rotate_psi:                      30.593    30.593   9.2% |---|
  calc. matrices:                   63.933    56.036  16.8% |------|
   Apply hamiltonian:                7.898     7.898   2.4% ||
  diagonalize:                       1.242     1.242   0.4% |
  rotate_psi:                       30.823    30.823   9.2% |---|
 Density:                            1.914     0.002   0.0% |
  Atomic density matrices:           0.171     0.171   0.1% |
  Mix:                               1.156     1.156   0.3% |
  Multipole moments:                 0.043     0.043   0.0% |
  Pseudo density:                    0.543     0.541   0.2% |
   Symmetrize density:               0.001     0.001   0.0% |
 Hamiltonian:                      115.271     0.007   0.0% |
  Atomic:                           79.533     0.176   0.1% |
   XC Correction:                   79.358    79.358  23.7% |--------|
  Calculate atomic Hamiltonians:     0.708     0.708   0.2% |
  Communicate:                       0.001     0.001   0.0% |
  Hartree integrate/restrict:        0.377     0.377   0.1% |
  Poisson:                          19.349    19.349   5.8% |-|
  XC 3D grid:                       15.165    15.165   4.5% |-|
  vbar:                              0.131     0.131   0.0% |
 Orthonormalize:                     0.598     0.000   0.0% |
  calc_s_matrix:                     0.141     0.141   0.0% |
  inverse-cholesky:                  0.001     0.001   0.0% |
  projections:                       0.243     0.243   0.1% |
  rotate_psi_s:                      0.213     0.213   0.1% |
Set symmetry:                        0.001     0.001   0.0% |
Other:                               0.821     0.821   0.2% |
-----------------------------------------------------------
Total:                                       334.210 100.0%

Memory usage: 309.67 MiB
Date: Mon Jan 28 05:28:49 2019
