
  ___ ___ ___ _ _ _  
 |   |   |_  | | | | 
 | | | | | . | | | | 
 |__ |  _|___|_____|  1.4.0
 |___|_|             

User:   murakami@tssm1.eng.shizuoka.ac.jp
Date:   Mon Jan 28 05:28:49 2019
Arch:   x86_64
Pid:    19793
Python: 3.6.5
gpaw:   /home/murakami/.local/lib/python3.6/site-packages/gpaw
_gpaw:  /home/murakami/.local/lib/python3.6/site-packages/
        _gpaw.cpython-36m-x86_64-linux-gnu.so
ase:    /home/murakami/.local/lib/python3.6/site-packages/ase (version 3.16.2)
numpy:  /home/murakami/.local/lib/python3.6/site-packages/numpy (version 1.15.2)
scipy:  /home/murakami/.local/lib/python3.6/site-packages/scipy (version 1.1.0)
units:  Angstrom and eV
cores:  1

Input parameters:
  kpts: {size: (1, 1, 1)}
  maxiter: 300
  xc: PBE

System changes: positions, numbers, cell, pbc, initial_charges, initial_magmoms 

Initialize ...

Fe-setup:
  name: Iron
  id: 37abbd8d6c3c35915a9b583b742da910
  Z: 26
  valence: 8
  core: 18
  charge: 0.0
  file: /home/murakami/Public/gpaw-setups-0.9.20000/Fe.PBE.gz
  cutoffs: 1.06(comp), 2.06(filt), 2.67(core), lmax=2
  valence states:
                energy  radius
    4s(2.00)    -5.291   1.164
    4p(0.00)    -1.326   1.058
    3d(6.00)    -7.505   1.058
    *s          21.920   1.164
    *p          25.885   1.058
    *d          19.706   1.058

  Using partial waves for Fe as LCAO basis

O-setup:
  name: Oxygen
  id: 32ecd46bf208036f09c70b0ec9a88b78
  Z: 8
  valence: 6
  core: 2
  charge: 0.0
  file: /home/murakami/Public/gpaw-setups-0.9.20000/O.PBE.gz
  cutoffs: 0.67(comp), 1.17(filt), 0.83(core), lmax=2
  valence states:
                energy  radius
    2s(2.00)   -23.961   0.688
    2p(4.00)    -9.029   0.598
    *s           3.251   0.688
    *p          18.182   0.598
    *d           0.000   0.619

  Using partial waves for O as LCAO basis

F-setup:
  name: Fluorine
  id: 9cd46ba2a61e170ad72278be75b55cc0
  Z: 9
  valence: 7
  core: 2
  charge: 0.0
  file: /home/murakami/Public/gpaw-setups-0.9.20000/F.PBE.gz
  cutoffs: 0.64(comp), 1.14(filt), 0.74(core), lmax=2
  valence states:
                energy  radius
    2s(2.00)   -29.898   0.635
    2p(5.00)   -11.110   0.635
    *s          -2.687   0.635
    *p          16.102   0.635
    *d           0.000   0.635

  Using partial waves for F as LCAO basis

Reference energy: -648925.267931

Spin-paired calculation

Occupation numbers:
  Fermi-Dirac: width=0.1000 eV

Convergence criteria:
  Maximum total energy change: 0.0005 eV / electron
  Maximum integral of absolute density change: 0.0001 electrons
  Maximum integral of absolute eigenstate change: 4e-08 eV^2
  Maximum number of iterations: 300

Symmetries present (total): 1

  ( 1  0  0)
  ( 0  1  0)
  ( 0  0  1)

1 k-point (Gamma)
1 k-point in the irreducible part of the Brillouin zone
       k-points in crystal coordinates                weights
   0:     0.00000000    0.00000000    0.00000000          1/1

Wave functions: Uniform real-space grid
  Kinetic energy operator: 8*3+1=25 point O(h^6) finite-difference Laplacian
  ScaLapack parameters: grid=1x1, blocksize=None 

Eigensolver
   Davidson(niter=1, smin=None, normalize=True) 

Densities:
  Coarse grid: 48*28*76 grid
  Fine grid: 96*56*152 grid
  Total Charge: 0.000000 

Density mixing:
  Method: separate
  Backend: pulay
  Linear mixing parameter: 0.05
  Mixing with 5 old densities
  Damping of long wave oscillations: 50 

Hamiltonian:
  XC and Coulomb potentials evaluated on a 96*56*152 grid
  Using the PBE Exchange-Correlation functional
  Interpolation: tri-quintic (5. degree polynomial)
  Poisson solver: Jacobi solver with 4 multi-grid levels
    Coarsest grid: 12 x 7 x 19 points
    Stencil: 8*3+1=25 point O(h^6) finite-difference Laplacian
    Max iterations: 1000
    Tolerance: 2.000000e-10 

Memory estimate:
  Process memory now: 309.67 MiB
  Calculator: 625.81 MiB
    Density: 116.13 MiB
      Arrays: 20.26 MiB
      Localized functions: 88.08 MiB
      Mixer: 7.79 MiB
    Hamiltonian: 35.03 MiB
      Arrays: 13.25 MiB
      XC: 0.00 MiB
      Poisson: 15.10 MiB
      vbar: 6.68 MiB
    Wavefunctions: 474.64 MiB
      Arrays psit_nG: 224.44 MiB
      Eigensolver: 234.67 MiB
      Projections: 1.66 MiB
      Projectors: 13.87 MiB

Total number of cores used: 1

Number of atoms: 52
Number of atomic orbitals: 288
Number of bands in calculation: 288
Bands to converge: occupied states only
Number of valence electrons: 376

... initialized

Initializing position-dependent things.

Density initialized from atomic densities
Creating initial wave functions:
  288 bands from LCAO basis set

                                           
                                           
                                           
                                           
                          Fe               
              F       F                    
             Fe              O             
               O        F       F          
                            Fe             
         F       F        F                
               Fe                          
            FFe    F       F               
              F        F     F             
         F     F       Fe                  
                        F   Fe             
             Fe  O        F     F          
               Fe Fe                       
            F      F   Fe  O               
              F       F     Fe             
                          Fe               
         F   FeF        F                  
                         F                 
          F     F Fe                       
            F                              
                    F     F Fe             
                                           
                                           
                                           
                                           
                                           

Positions:
   0 Fe     1.542848    2.593853    2.677597    ( 0.0000,  0.0000,  0.0000)
   1 Fe     1.542848    2.765614   10.155423    ( 0.0000,  0.0000,  0.0000)
   2 Fe     6.243444    5.273587    2.635533    ( 0.0000,  0.0000,  0.0000)
   3 Fe     6.243444    0.085880   10.113358    ( 0.0000,  0.0000,  0.0000)
   4 Fe     1.648330    2.534235   14.537576    ( 0.0000,  0.0000,  0.0000)
   5 Fe     1.648330    2.825232    7.059751    ( 0.0000,  0.0000,  0.0000)
   6 Fe     6.348925    5.213968   14.495512    ( 0.0000,  0.0000,  0.0000)
   7 Fe     6.348925    0.145499    7.017686    ( 0.0000,  0.0000,  0.0000)
   8 Fe     3.117708    0.157643   12.271643    ( 0.0000,  0.0000,  0.0000)
   9 Fe     3.117708    5.201824    4.793817    ( 0.0000,  0.0000,  0.0000)
  10 Fe     7.818303    2.837377   12.229578    ( 0.0000,  0.0000,  0.0000)
  11 Fe     7.818303    2.522090    4.751753    ( 0.0000,  0.0000,  0.0000)
  12 Fe     3.136416    0.023153    7.705724    ( 0.0000,  0.0000,  0.0000)
  13 Fe     3.136416    5.336314    0.227899    ( 0.0000,  0.0000,  0.0000)
  14 Fe     7.837011    2.702886    7.663660    ( 0.0000,  0.0000,  0.0000)
  15 Fe     7.837011    2.656581    0.185834    ( 0.0000,  0.0000,  0.0000)
  16 O      2.907450    1.433164   13.814659    ( 0.0000,  0.0000,  0.0000)
  17 O      2.907450    3.926303    6.336834    ( 0.0000,  0.0000,  0.0000)
  18 O      7.608045    4.112898   13.772595    ( 0.0000,  0.0000,  0.0000)
  19 O      7.608045    1.246569    6.294769    ( 0.0000,  0.0000,  0.0000)
  20 F      0.036298    1.976797    3.648091    ( 0.0000,  0.0000,  0.0000)
  21 F      0.036298    3.382670   11.125917    ( 0.0000,  0.0000,  0.0000)
  22 F      4.736893    4.656530    3.606027    ( 0.0000,  0.0000,  0.0000)
  23 F      4.736893    0.702937   11.083852    ( 0.0000,  0.0000,  0.0000)
  24 F      0.243622    2.119010    8.659520    ( 0.0000,  0.0000,  0.0000)
  25 F      0.243622    3.240457    1.181694    ( 0.0000,  0.0000,  0.0000)
  26 F      4.944218    4.798743    8.617455    ( 0.0000,  0.0000,  0.0000)
  27 F      4.944218    0.560724    1.139630    ( 0.0000,  0.0000,  0.0000)
  28 F      1.655719    1.147837    1.234055    ( 0.0000,  0.0000,  0.0000)
  29 F      1.655719    4.211630    8.711881    ( 0.0000,  0.0000,  0.0000)
  30 F      6.356314    3.827571    1.191991    ( 0.0000,  0.0000,  0.0000)
  31 F      6.356314    1.531896    8.669816    ( 0.0000,  0.0000,  0.0000)
  32 F      1.706072    1.090357   11.043749    ( 0.0000,  0.0000,  0.0000)
  33 F      1.706072    4.269110    3.565923    ( 0.0000,  0.0000,  0.0000)
  34 F      6.406667    3.770090   11.001684    ( 0.0000,  0.0000,  0.0000)
  35 F      6.406667    1.589377    3.523859    ( 0.0000,  0.0000,  0.0000)
  36 F      1.776853    1.081862    6.320255    ( 0.0000,  0.0000,  0.0000)
  37 F      1.776853    4.277605   13.798081    ( 0.0000,  0.0000,  0.0000)
  38 F      6.477449    3.761596    6.278191    ( 0.0000,  0.0000,  0.0000)
  39 F      6.477449    1.597871   13.756016    ( 0.0000,  0.0000,  0.0000)
  40 F      2.759033    1.859028    8.623789    ( 0.0000,  0.0000,  0.0000)
  41 F      2.759033    3.500439    1.145964    ( 0.0000,  0.0000,  0.0000)
  42 F      7.459629    4.538761    8.581725    ( 0.0000,  0.0000,  0.0000)
  43 F      7.459629    0.820706    1.103899    ( 0.0000,  0.0000,  0.0000)
  44 F      2.849557    1.637912    3.683786    ( 0.0000,  0.0000,  0.0000)
  45 F      2.849557    3.721555   11.161611    ( 0.0000,  0.0000,  0.0000)
  46 F      7.550153    4.317646    3.641721    ( 0.0000,  0.0000,  0.0000)
  47 F      7.550153    1.041821   11.119547    ( 0.0000,  0.0000,  0.0000)
  48 F      4.613296    0.721642    6.284284    ( 0.0000,  0.0000,  0.0000)
  49 F      4.613296    4.637825   13.762110    ( 0.0000,  0.0000,  0.0000)
  50 F      9.313892    3.401375    6.242220    ( 0.0000,  0.0000,  0.0000)
  51 F      9.313892    1.958092   13.720045    ( 0.0000,  0.0000,  0.0000)

Unit cell:
           periodic     x           y           z      points  spacing
  1. axis:    yes    9.401191    0.000000   -0.084129    48     0.1959
  2. axis:    yes    0.000000    5.359467    0.000000    28     0.1914
  3. axis:    yes    0.000000    0.000000   14.955651    76     0.1968

  Lengths:   9.401567   5.359467  14.955651
  Angles:   90.000000  90.512712  90.000000

Effective grid spacing dv^(1/3) = 0.1947

                     log10-error:    total        iterations:
           time      wfs    density  energy       fermi  poisson
iter:   1  05:29:47  +1.49   +inf  -311.623940    3      18     
iter:   2  05:30:14  +0.30   +inf  -313.193857    3             
iter:   3  05:30:41  -0.29   +inf  -313.622985    2             
iter:   4  05:31:12  -0.46  -1.13  -310.747672    3      9      
iter:   5  05:31:43  -0.46  -1.16  -324.328095    3      10     
iter:   6  05:32:14  -0.12  -1.11  -304.125505    34     11     
iter:   7  05:32:45  -0.33  -1.37  -301.961042    4      11     
iter:   8  05:33:17  -0.84  -1.41  -301.339839    4      18     
iter:   9  05:33:50  -1.15  -1.43  -304.995795    4      28     
iter:  10  05:34:24  -1.29  -1.36  -301.448310    4      30     
iter:  11  05:34:56  -1.14  -1.45  -305.829032    4      27     
iter:  12  05:35:30  -1.08  -1.42  -303.207044    3      29     
iter:  13  05:36:03  -1.54  -1.44  -301.068482    3      28     
iter:  14  05:36:36  -1.73  -1.49  -300.879004    3      26     
iter:  15  05:37:08  -1.94  -1.50  -300.777150    4      26     
iter:  16  05:37:41  -1.93  -1.52  -301.012574    2      27     
iter:  17  05:38:14  -1.57  -1.50  -302.622716    3      25     
iter:  18  05:38:47  -1.41  -1.49  -300.874513    3      25     
iter:  19  05:39:19  -1.74  -1.55  -301.032393    3      22     
iter:  20  05:39:52  -1.87  -1.54  -301.812685    3      27     
iter:  21  05:40:25  -1.82  -1.52  -301.275053    2      28     
iter:  22  05:40:58  -2.03  -1.54  -300.528180    3      27     
iter:  23  05:41:31  -1.89  -1.57  -301.340692    3      24     
iter:  24  05:42:04  -1.47  -1.59  -301.264710    2      24     
iter:  25  05:42:36  -1.84  -1.58  -300.517853    3      24     
iter:  26  05:43:09  -2.03  -1.61  -301.648291    3      22     
iter:  27  05:43:42  -1.92  -1.61  -302.496331    3      26     
iter:  28  05:44:15  -1.58  -1.56  -302.868959    3      30     
iter:  29  05:44:48  -1.48  -1.54  -303.284559    3      24     
iter:  30  05:45:20  -1.41  -1.54  -300.324641    3      22     
iter:  31  05:45:52  -2.02  -1.70  -300.298816    3      18     
iter:  32  05:46:24  -2.33  -1.68  -300.191668    3      23     
iter:  33  05:46:57  -2.16  -1.70  -300.986899    3      26     
iter:  34  05:47:30  -1.99  -1.66  -300.455643    3      22     
iter:  35  05:48:03  -1.84  -1.71  -301.338632    3      25     
iter:  36  05:48:35  -1.69  -1.65  -300.439635    2      20     
iter:  37  05:49:07  -2.29  -1.72  -300.106553    3      24     
iter:  38  05:49:40  -2.57  -1.74  -299.804021    2      21     
iter:  39  05:50:12  -2.39  -1.78  -301.057390    3      24     
iter:  40  05:50:45  -2.07  -1.69  -300.076926    3      26     
iter:  41  05:51:17  -1.90  -1.77  -300.915010    3      17     
iter:  42  05:51:50  -1.83  -1.72  -300.494824    3      23     
iter:  43  05:52:23  -2.03  -1.78  -301.946766    3      27     
iter:  44  05:52:56  -1.95  -1.69  -300.124721    3      27     
iter:  45  05:53:27  -2.35  -1.79  -300.017689    3      15     
iter:  46  05:54:00  -2.07  -1.86  -302.086224    3      27     
iter:  47  05:54:33  -1.91  -1.66  -300.478112    3      28     
iter:  48  05:55:05  -2.01  -1.81  -300.042678    2      18     
iter:  49  05:55:38  -2.47  -1.86  -300.298239    3      22     
iter:  50  05:56:10  -2.22  -1.86  -300.408249    3      25     
iter:  51  05:56:43  -2.27  -1.81  -300.186896    3      22     
iter:  52  05:57:16  -2.14  -1.87  -301.099530    3      25     
iter:  53  05:57:48  -2.11  -1.77  -300.077888    3      26     
iter:  54  05:58:21  -2.54  -1.90  -299.846885    3      22     
iter:  55  05:58:52  -2.55  -1.95  -299.914519    3      15     
iter:  56  05:59:25  -2.21  -1.96  -301.103334    3      24     
iter:  57  05:59:58  -2.26  -1.78  -299.806073    3      25     
iter:  58  06:00:30  -2.57  -1.99  -300.111855    3      19     
iter:  59  06:01:02  -2.11  -1.98  -300.329086    3      16     
iter:  60  06:01:34  -2.25  -1.91  -300.350245    3      25     
iter:  61  06:02:07  -2.35  -1.90  -300.055211    3      21     
iter:  62  06:02:39  -2.29  -1.99  -300.126722    3      18     
iter:  63  06:03:11  -2.07  -2.05  -300.267817    3      19     
iter:  64  06:03:44  -2.18  -1.95  -301.270254    3      26     
iter:  65  06:04:16  -2.09  -1.82  -299.959932    3      23     
iter:  66  06:04:48  -2.68  -2.07  -299.786533    3      18     
iter:  67  06:05:20  -3.18  -2.15  -299.760472    2      17     
iter:  68  06:05:52  -2.54  -2.18  -300.197258    3      16     
iter:  69  06:06:24  -2.47  -2.02  -299.731964    3      19     
iter:  70  06:06:56  -2.82  -2.22  -300.074727    3      22     
iter:  71  06:07:29  -2.71  -2.06  -299.760829    3      22     
iter:  72  06:08:00  -3.18  -2.21  -299.750294    2      16     
iter:  73  06:08:32  -3.37  -2.23  -299.731418    2      17     
iter:  74  06:09:04  -3.05  -2.25  -299.875854    3      17     
iter:  75  06:09:36  -2.57  -2.20  -299.897221    2      18     
iter:  76  06:10:08  -2.66  -2.18  -299.945338    3      17     
iter:  77  06:10:40  -2.64  -2.18  -299.892721    3      17     
iter:  78  06:11:12  -2.83  -2.20  -299.946467    3      18     
iter:  79  06:11:44  -2.94  -2.20  -299.739039    3      21     
iter:  80  06:12:16  -3.12  -2.33  -299.832629    3      18     
iter:  81  06:12:48  -2.78  -2.28  -299.779496    3      15     
iter:  82  06:13:19  -3.08  -2.30  -299.725460    3      14     
iter:  83  06:13:51  -3.45  -2.39  -299.781158    3      15     
iter:  84  06:14:23  -3.14  -2.37  -299.840593    3      17     
iter:  85  06:14:55  -2.91  -2.30  -299.854528    3      22     
iter:  86  06:15:27  -2.86  -2.25  -299.859751    3      17     
iter:  87  06:15:59  -2.90  -2.29  -299.796951    2      19     
iter:  88  06:16:31  -3.14  -2.41  -299.766850    3      19     
iter:  89  06:17:03  -3.44  -2.40  -299.723670    2      14     
iter:  90  06:17:34  -3.70  -2.52  -299.722123    2      7      
iter:  91  06:18:06  -3.04  -2.54  -299.975971    3      21     
iter:  92  06:18:38  -2.98  -2.21  -299.746733    3      21     
iter:  93  06:19:10  -3.24  -2.49  -299.789210    3      16     
iter:  94  06:19:41  -3.33  -2.47  -299.731440    3      12     
iter:  95  06:20:12  -3.86  -2.58  -299.707745    2      10     
iter:  96  06:20:43  -4.09  -2.66  -299.714292    2      6      
iter:  97  06:21:14  -3.87  -2.63  -299.719271    2      12     
iter:  98  06:21:45  -3.98  -2.64  -299.711029    3      11     
iter:  99  06:22:17  -3.90  -2.65  -299.725882    3      13     
iter: 100  06:22:49  -3.55  -2.62  -299.750129    3      15     
iter: 101  06:23:20  -3.22  -2.64  -299.721285    3      12     
iter: 102  06:23:51  -3.54  -2.65  -299.750989    3      13     
iter: 103  06:24:23  -3.55  -2.62  -299.740122    3      17     
iter: 104  06:24:55  -3.60  -2.63  -299.727052    2      14     
iter: 105  06:25:26  -3.85  -2.74  -299.713929    2      13     
iter: 106  06:25:58  -4.15  -2.80  -299.715390    2      13     
iter: 107  06:26:29  -3.55  -2.87  -299.747359    2      14     
iter: 108  06:27:00  -3.58  -2.66  -299.716873    2      8      
iter: 109  06:27:31  -4.01  -2.85  -299.717245    2      9      
iter: 110  06:28:02  -4.20  -2.86  -299.712035    2      11     
iter: 111  06:28:33  -4.51  -2.95  -299.709826    2      12     
iter: 112  06:29:04  -4.46  -3.00  -299.710419    2      7      
iter: 113  06:29:35  -4.37  -3.00  -299.708904    2      5      
iter: 114  06:30:06  -4.54  -3.05  -299.710366    2      7      
iter: 115  06:30:36  -4.62  -3.00  -299.709946    2      8      
iter: 116  06:31:07  -4.76  -3.06  -299.711387    2      9      
iter: 117  06:31:38  -4.48  -3.02  -299.709782    2      10     
iter: 118  06:32:10  -4.65  -3.03  -299.709497    2      10     
iter: 119  06:32:40  -4.77  -3.07  -299.708700    2      4      
iter: 120  06:33:11  -5.06  -3.11  -299.708860    2      5      
iter: 121  06:33:41  -5.40  -3.15  -299.707734    2      4      
iter: 122  06:34:11  -5.37  -3.18  -299.707509    2      4      
iter: 123  06:34:42  -4.91  -3.18  -299.710010    2      6      
iter: 124  06:35:13  -4.86  -3.15  -299.710800    2      9      
iter: 125  06:35:44  -4.59  -3.12  -299.712426    2      6      
iter: 126  06:36:14  -4.55  -3.09  -299.708354    2      7      
iter: 127  06:36:45  -4.91  -3.16  -299.708345    2      5      
iter: 128  06:37:15  -5.41  -3.23  -299.709132    2      4      
iter: 129  06:37:46  -5.28  -3.23  -299.707852    2      4      
iter: 130  06:38:17  -5.30  -3.27  -299.709134    2      6      
iter: 131  06:38:47  -5.08  -3.23  -299.707661    2      5      
iter: 132  06:39:18  -4.66  -3.25  -299.711582    2      7      
iter: 133  06:39:49  -4.53  -3.20  -299.712645    2      8      
iter: 134  06:40:20  -4.54  -3.09  -299.711387    2      10     
iter: 135  06:40:50  -4.75  -3.26  -299.709624    2      5      
iter: 136  06:41:21  -5.24  -3.32  -299.708136    2      5      
iter: 137  06:41:51  -5.50  -3.43  -299.708574    2      5      
iter: 138  06:42:22  -5.41  -3.36  -299.708138    2      4      
iter: 139  06:42:52  -5.68  -3.45  -299.708220    2      4      
iter: 140  06:43:23  -5.43  -3.44  -299.709315    2      4      
iter: 141  06:43:53  -5.28  -3.43  -299.707933    2      4      
iter: 142  06:44:24  -5.14  -3.46  -299.709039    2      5      
iter: 143  06:44:55  -5.06  -3.42  -299.710623    2      8      
iter: 144  06:45:25  -5.10  -3.29  -299.709131    2      7      
iter: 145  06:45:56  -5.22  -3.52  -299.709081    2      4      
iter: 146  06:46:26  -5.41  -3.48  -299.708144    2      4      
iter: 147  06:46:57  -5.77  -3.55  -299.708997    2      4      
iter: 148  06:47:27  -5.42  -3.59  -299.708215    2      4      
iter: 149  06:47:58  -5.46  -3.54  -299.708368    2      5      
iter: 150  06:48:28  -5.57  -3.50  -299.707988    2      4      
iter: 151  06:48:58  -5.67  -3.63  -299.708262    2      4      
iter: 152  06:49:29  -5.54  -3.63  -299.709275    2      4      
iter: 153  06:49:59  -5.69  -3.62  -299.708274    2      4      
iter: 154  06:50:30  -5.39  -3.77  -299.709371    2      4      
iter: 155  06:51:00  -5.45  -3.58  -299.708415    2      3      
iter: 156  06:51:30  -5.92  -3.74  -299.708867    2      3      
iter: 157  06:52:01  -5.94  -3.78  -299.708776    2      3      
iter: 158  06:52:31  -6.04  -3.79  -299.708153    2      3      
iter: 159  06:53:01  -6.17  -3.84  -299.708620    2      3      
iter: 160  06:53:32  -6.19  -3.82  -299.708183    2      3      
iter: 161  06:54:02  -6.59  -3.88  -299.708471    2      2      
iter: 162  06:54:32  -6.73  -3.93  -299.708325    2      3      
iter: 163  06:55:02  -6.42  -3.93  -299.708330    2      3      
iter: 164  06:55:33  -6.17  -3.91  -299.708926    2      3      
iter: 165  06:56:03  -6.16  -3.87  -299.708512    2      3      
iter: 166  06:56:33  -6.32  -3.92  -299.708489    2      3      
iter: 167  06:57:04  -6.03  -4.02  -299.708404    2      3      
iter: 168  06:57:34  -6.26  -3.95  -299.708815    2      3      
iter: 169  06:58:04  -6.38  -3.98  -299.708556    2      3      
iter: 170  06:58:35  -6.48  -4.07  -299.708282    2      3      
iter: 171  06:59:05  -6.37  -4.09  -299.708383    2      3      
iter: 172  06:59:35  -6.45  -4.04  -299.708456    2      3      
iter: 173  07:00:06  -6.19  -4.25  -299.708824    2      3      
iter: 174  07:00:36  -6.13  -4.01  -299.708121    2      3      
iter: 175  07:01:06  -6.54  -4.22  -299.708381    2      3      
iter: 176  07:01:37  -6.61  -4.26  -299.708753    2      3      
iter: 177  07:02:07  -6.93  -4.25  -299.708526    2      2      
iter: 178  07:02:37  -7.22  -4.32  -299.708541    2      2      
iter: 179  07:03:07  -7.38  -4.39  -299.708510    2      2      
iter: 180  07:03:37  -7.22  -4.40  -299.708532    2      2      
iter: 181  07:04:08  -7.29  -4.47  -299.708564    2      3      
iter: 182  07:04:38  -6.83  -4.56  -299.708281    2      3      
iter: 183  07:05:08  -6.85  -4.39  -299.708580    2      2      
iter: 184  07:05:38  -7.39  -4.53  -299.708475    1      2      
iter: 185  07:06:09  -7.74  -4.63  -299.708523    2      2      

Converged after 185 iterations.

Dipole moment: (-28.250753, -6.756860, 2.457555) |e|*Ang

Energy contributions relative to reference atoms: (reference = -648925.267931)

Kinetic:       +208.433759
Potential:     -241.208389
External:        +0.000000
XC:            -279.399616
Entropy (-ST):   -2.812639
Local:          +13.872042
--------------------------
Free energy:   -301.114842
Extrapolated:  -299.708523

Fermi level: 1.58433

 Band  Eigenvalues  Occupancy
    0    -22.23445    2.00000
    1    -22.21979    2.00000
    2    -22.12240    2.00000
    3    -22.11508    2.00000
    4    -22.04689    2.00000
    5    -22.04500    2.00000
    6    -21.99370    2.00000
    7    -21.97567    2.00000
    8    -21.91371    2.00000
    9    -21.90318    2.00000
   10    -21.89784    2.00000
   11    -21.89460    2.00000
   12    -21.64029    2.00000
   13    -21.63418    2.00000
   14    -21.63249    2.00000
   15    -21.63007    2.00000
   16    -21.52049    2.00000
   17    -21.51615    2.00000
   18    -21.48373    2.00000
   19    -21.48219    2.00000
   20    -21.46111    2.00000
   21    -21.44997    2.00000
   22    -21.39349    2.00000
   23    -21.38878    2.00000
   24    -21.33884    2.00000
   25    -21.33559    2.00000
   26    -21.27879    2.00000
   27    -21.27870    2.00000
   28    -21.12878    2.00000
   29    -21.12867    2.00000
   30    -21.10997    2.00000
   31    -21.10989    2.00000
   32    -16.95422    2.00000
   33    -16.95393    2.00000
   34    -16.94748    2.00000
   35    -16.94701    2.00000
   36     -5.37761    2.00000
   37     -5.37515    2.00000
   38     -5.28576    2.00000
   39     -5.18710    2.00000
   40     -5.18493    2.00000
   41     -5.14658    2.00000
   42     -5.13545    2.00000
   43     -5.11198    2.00000
   44     -4.88572    2.00000
   45     -4.83054    2.00000
   46     -4.73461    2.00000
   47     -4.63277    2.00000
   48     -4.58836    2.00000
   49     -4.56623    2.00000
   50     -4.53279    2.00000
   51     -4.50725    2.00000
   52     -4.47535    2.00000
   53     -4.46789    2.00000
   54     -4.46483    2.00000
   55     -4.46346    2.00000
   56     -4.41440    2.00000
   57     -4.35998    2.00000
   58     -4.35027    2.00000
   59     -4.33027    2.00000
   60     -4.31120    2.00000
   61     -4.30048    2.00000
   62     -4.29645    2.00000
   63     -4.26485    2.00000
   64     -4.21215    2.00000
   65     -4.19161    2.00000
   66     -4.18056    2.00000
   67     -4.12843    2.00000
   68     -4.10824    2.00000
   69     -4.08783    2.00000
   70     -4.05663    2.00000
   71     -4.04659    2.00000
   72     -4.02205    2.00000
   73     -4.01741    2.00000
   74     -3.99968    2.00000
   75     -3.97336    2.00000
   76     -3.95523    2.00000
   77     -3.93950    2.00000
   78     -3.88878    2.00000
   79     -3.85981    2.00000
   80     -3.79735    2.00000
   81     -3.78603    2.00000
   82     -3.66990    2.00000
   83     -3.64093    2.00000
   84     -3.57781    2.00000
   85     -3.55909    2.00000
   86     -3.51348    2.00000
   87     -3.46096    2.00000
   88     -3.43506    2.00000
   89     -3.39340    2.00000
   90     -3.38697    2.00000
   91     -3.36550    2.00000
   92     -3.28485    2.00000
   93     -3.23937    2.00000
   94     -3.19813    2.00000
   95     -3.18533    2.00000
   96     -3.12632    2.00000
   97     -3.06129    2.00000
   98     -3.04943    2.00000
   99     -3.02796    2.00000
  100     -3.00303    2.00000
  101     -2.96393    2.00000
  102     -2.95157    2.00000
  103     -2.94181    2.00000
  104     -2.93024    2.00000
  105     -2.91742    2.00000
  106     -2.89490    2.00000
  107     -2.83120    2.00000
  108     -2.79231    2.00000
  109     -2.77377    2.00000
  110     -2.76310    2.00000
  111     -2.75340    2.00000
  112     -2.73310    2.00000
  113     -2.69358    2.00000
  114     -2.62380    2.00000
  115     -2.56405    2.00000
  116     -2.54221    2.00000
  117     -2.51316    2.00000
  118     -2.49869    2.00000
  119     -2.47599    2.00000
  120     -2.45133    2.00000
  121     -2.44070    2.00000
  122     -2.42998    2.00000
  123     -2.38206    2.00000
  124     -2.35073    2.00000
  125     -2.33804    2.00000
  126     -2.25579    2.00000
  127     -2.25333    2.00000
  128     -2.22857    2.00000
  129     -2.20393    2.00000
  130     -2.19931    2.00000
  131     -2.18297    2.00000
  132     -2.15562    2.00000
  133     -2.13267    2.00000
  134     -2.08133    2.00000
  135     -2.02877    2.00000
  136     -2.00707    2.00000
  137     -1.96130    2.00000
  138     -1.90900    2.00000
  139     -1.90666    2.00000
  140     -1.88938    2.00000
  141     -1.84814    2.00000
  142     -1.82756    2.00000
  143     -1.80089    2.00000
  144      0.82393    1.99900
  145      0.83233    1.99892
  146      0.84626    1.99875
  147      0.89021    1.99807
  148      0.89346    1.99800
  149      0.91172    1.99760
  150      0.96399    1.99596
  151      0.96866    1.99577
  152      0.99654    1.99441
  153      1.01358    1.99338
  154      1.03432    1.99186
  155      1.03452    1.99184
  156      1.03990    1.99140
  157      1.05803    1.98969
  158      1.07701    1.98755
  159      1.09077    1.98573
  160      1.12950    1.97905
  161      1.16435    1.97045
  162      1.16741    1.96954
  163      1.17258    1.96795
  164      1.20096    1.95766
  165      1.20341    1.95663
  166      1.21355    1.95211
  167      1.22364    1.94716
  168      1.24365    1.93583
  169      1.24383    1.93572
  170      1.24827    1.93290
  171      1.26306    1.92262
  172      1.26810    1.91879
  173      1.26854    1.91844
  174      1.28621    1.90344
  175      1.29661    1.89342
  176      1.32503    1.86082
  177      1.36470    1.79984
  178      1.37709    1.77640
  179      1.38803    1.75372
  180      1.40444    1.71603
  181      1.42339    1.66665
  182      1.44856    1.59077
  183      1.45158    1.58087
  184      1.45850    1.55747
  185      1.47782    1.48733
  186      1.51168    1.34808
  187      1.53073    1.26178
  188      1.58635    0.98992
  189      1.60338    0.90504
  190      1.61757    0.83532
  191      1.67397    0.57960
  192      1.69007    0.51563
  193      1.71947    0.41130
  194      1.73953    0.34960
  195      1.74573    0.33208
  196      1.82297    0.16843
  197      1.84506    0.13734
  198      1.88899    0.09073
  199      1.89108    0.08894
  200      1.92955    0.06141
  201      1.93396    0.05884
  202      1.94555    0.05257
  203      2.01292    0.02715
  204      2.10919    0.01045
  205      2.15445    0.00666
  206      2.22373    0.00334
  207      2.24475    0.00271
  208      2.27607    0.00198
  209      2.43469    0.00041
  210      2.44308    0.00037
  211      2.49255    0.00023
  212      2.50432    0.00020
  213      2.52760    0.00016
  214      2.58802    0.00009
  215      2.71475    0.00002
  216      2.73413    0.00002
  217      2.74020    0.00002
  218      2.82459    0.00001
  219      2.83827    0.00001
  220      2.86502    0.00001
  221      2.90381    0.00000
  222      2.98982    0.00000
  223      3.01522    0.00000
  224      4.91425    0.00000
  225      5.75348    0.00000
  226      6.20264    0.00000
  227      6.80287    0.00000
  228      7.40035    0.00000
  229      7.69088    0.00000
  230      7.75167    0.00000
  231      7.97240    0.00000
  232      8.26378    0.00000
  233      8.47187    0.00000
  234      8.59822    0.00000
  235      8.92171    0.00000
  236      9.87531    0.00000
  237     10.06251    0.00000
  238     10.07243    0.00000
  239     10.13498    0.00000
  240     10.44768    0.00000
  241     10.74787    0.00000
  242     10.83386    0.00000
  243     10.90177    0.00000
  244     10.98839    0.00000
  245     10.99650    0.00000
  246     11.02013    0.00000
  247     11.23575    0.00000
  248     11.27958    0.00000
  249     11.42608    0.00000
  250     11.57123    0.00000
  251     11.66539    0.00000
  252     11.74613    0.00000
  253     11.88831    0.00000
  254     11.91565    0.00000
  255     11.94336    0.00000
  256     12.04557    0.00000
  257     12.05617    0.00000
  258     12.24791    0.00000
  259     12.31440    0.00000
  260     12.37157    0.00000
  261     12.38401    0.00000
  262     12.50018    0.00000
  263     12.51721    0.00000
  264     12.52413    0.00000
  265     12.56741    0.00000
  266     12.64167    0.00000
  267     12.64397    0.00000
  268     12.68610    0.00000
  269     12.74177    0.00000
  270     12.82350    0.00000
  271     13.02434    0.00000
  272     13.06104    0.00000
  273     13.14538    0.00000
  274     13.25890    0.00000
  275     13.26586    0.00000
  276     13.34420    0.00000
  277     13.37733    0.00000
  278     13.45942    0.00000
  279     13.51394    0.00000
  280     13.69094    0.00000
  281     14.03309    0.00000
  282     14.04302    0.00000
  283     14.22196    0.00000
  284     14.39912    0.00000
  285     14.40766    0.00000
  286     14.49310    0.00000
  287     14.53125    0.00000

Timing:                              incl.     excl.
-----------------------------------------------------------
Hamiltonian:                         4.945     0.000   0.0% |
 Atomic:                             2.313     0.005   0.0% |
  XC Correction:                     2.308     2.308   0.0% |
 Calculate atomic Hamiltonians:      0.027     0.027   0.0% |
 Communicate:                        0.000     0.000   0.0% |
 Hartree integrate/restrict:         0.015     0.015   0.0% |
 Initialize Hamiltonian:             0.000     0.000   0.0% |
 Poisson:                            1.959     1.959   0.0% |
 XC 3D grid:                         0.625     0.625   0.0% |
 vbar:                               0.006     0.006   0.0% |
LCAO initialization:                19.457     0.225   0.0% |
 LCAO eigensolver:                   2.029     0.000   0.0% |
  Calculate projections:             0.023     0.023   0.0% |
  DenseAtomicCorrection:             0.021     0.021   0.0% |
  Distribute overlap matrix:         0.000     0.000   0.0% |
  Orbital Layouts:                   0.057     0.057   0.0% |
  Potential matrix:                  1.928     1.928   0.0% |
 LCAO to grid:                      16.035    16.035   0.3% |
 Set positions (LCAO WFS):           1.168     0.000   0.0% |
  Basic WFS set positions:           0.001     0.001   0.0% |
  Basis functions set positions:     0.000     0.000   0.0% |
  TCI: Calculate S, T, P:            1.166     1.166   0.0% |
SCF-cycle:                        5814.186     0.145   0.0% |
 Davidson:                        4975.692   636.633  10.9% |---|
  Apply hamiltonian:               118.358   118.358   2.0% ||
  Subspace diag:                  1498.565     0.029   0.0% |
   calc_h_matrix:                  578.287   461.806   7.9% |--|
    Apply hamiltonian:             116.482   116.482   2.0% ||
   diagonalize:                      3.918     3.918   0.1% |
   rotate_psi:                     916.331   916.331  15.7% |-----|
  calc. matrices:                 1784.601  1668.077  28.6% |----------|
   Apply hamiltonian:              116.524   116.524   2.0% ||
  diagonalize:                      16.630    16.630   0.3% |
  rotate_psi:                      920.905   920.905  15.8% |-----|
 Density:                           17.099     0.005   0.0% |
  Atomic density matrices:           0.999     0.999   0.0% |
  Mix:                               7.820     7.820   0.1% |
  Multipole moments:                 0.209     0.209   0.0% |
  Pseudo density:                    8.067     8.063   0.1% |
   Symmetrize density:               0.004     0.004   0.0% |
 Hamiltonian:                      815.996     0.020   0.0% |
  Atomic:                          422.704     0.840   0.0% |
   XC Correction:                  421.864   421.864   7.2% |--|
  Calculate atomic Hamiltonians:     4.935     4.935   0.1% |
  Communicate:                       0.001     0.001   0.0% |
  Hartree integrate/restrict:        2.792     2.792   0.0% |
  Poisson:                         271.188   271.188   4.6% |-|
  XC 3D grid:                      113.416   113.416   1.9% ||
  vbar:                              0.940     0.940   0.0% |
 Orthonormalize:                     5.253     0.000   0.0% |
  calc_s_matrix:                     1.531     1.531   0.0% |
  inverse-cholesky:                  0.004     0.004   0.0% |
  projections:                       1.165     1.165   0.0% |
  rotate_psi_s:                      2.553     2.553   0.0% |
Set symmetry:                        0.001     0.001   0.0% |
Other:                               1.303     1.303   0.0% |
-----------------------------------------------------------
Total:                                      5839.891 100.0%

Memory usage: 1.05 GiB
Date: Mon Jan 28 07:06:09 2019
