
  ___ ___ ___ _ _ _  
 |   |   |_  | | | | 
 | | | | | . | | | | 
 |__ |  _|___|_____|  1.4.0
 |___|_|             

User:   murakami@tssm1.eng.shizuoka.ac.jp
Date:   Mon Jan 28 08:59:18 2019
Arch:   x86_64
Pid:    19793
Python: 3.6.5
gpaw:   /home/murakami/.local/lib/python3.6/site-packages/gpaw
_gpaw:  /home/murakami/.local/lib/python3.6/site-packages/
        _gpaw.cpython-36m-x86_64-linux-gnu.so
ase:    /home/murakami/.local/lib/python3.6/site-packages/ase (version 3.16.2)
numpy:  /home/murakami/.local/lib/python3.6/site-packages/numpy (version 1.15.2)
scipy:  /home/murakami/.local/lib/python3.6/site-packages/scipy (version 1.1.0)
units:  Angstrom and eV
cores:  1

Input parameters:
  kpts: {size: (1, 1, 1)}
  maxiter: 300
  xc: PBE

System changes: positions, numbers, cell, pbc, initial_charges, initial_magmoms 

Initialize ...

Fe-setup:
  name: Iron
  id: 37abbd8d6c3c35915a9b583b742da910
  Z: 26
  valence: 8
  core: 18
  charge: 0.0
  file: /home/murakami/Public/gpaw-setups-0.9.20000/Fe.PBE.gz
  cutoffs: 1.06(comp), 2.06(filt), 2.67(core), lmax=2
  valence states:
                energy  radius
    4s(2.00)    -5.291   1.164
    4p(0.00)    -1.326   1.058
    3d(6.00)    -7.505   1.058
    *s          21.920   1.164
    *p          25.885   1.058
    *d          19.706   1.058

  Using partial waves for Fe as LCAO basis

O-setup:
  name: Oxygen
  id: 32ecd46bf208036f09c70b0ec9a88b78
  Z: 8
  valence: 6
  core: 2
  charge: 0.0
  file: /home/murakami/Public/gpaw-setups-0.9.20000/O.PBE.gz
  cutoffs: 0.67(comp), 1.17(filt), 0.83(core), lmax=2
  valence states:
                energy  radius
    2s(2.00)   -23.961   0.688
    2p(4.00)    -9.029   0.598
    *s           3.251   0.688
    *p          18.182   0.598
    *d           0.000   0.619

  Using partial waves for O as LCAO basis

F-setup:
  name: Fluorine
  id: 9cd46ba2a61e170ad72278be75b55cc0
  Z: 9
  valence: 7
  core: 2
  charge: 0.0
  file: /home/murakami/Public/gpaw-setups-0.9.20000/F.PBE.gz
  cutoffs: 0.64(comp), 1.14(filt), 0.74(core), lmax=2
  valence states:
                energy  radius
    2s(2.00)   -29.898   0.635
    2p(5.00)   -11.110   0.635
    *s          -2.687   0.635
    *p          16.102   0.635
    *d           0.000   0.635

  Using partial waves for F as LCAO basis

Reference energy: -479224.937077

Spin-paired calculation

Occupation numbers:
  Fermi-Dirac: width=0.1000 eV

Convergence criteria:
  Maximum total energy change: 0.0005 eV / electron
  Maximum integral of absolute density change: 0.0001 electrons
  Maximum integral of absolute eigenstate change: 4e-08 eV^2
  Maximum number of iterations: 300

Symmetries present (total): 1

  ( 1  0  0)
  ( 0  1  0)
  ( 0  0  1)

1 k-point (Gamma)
1 k-point in the irreducible part of the Brillouin zone
       k-points in crystal coordinates                weights
   0:     0.00000000    0.00000000    0.00000000          1/1

Wave functions: Uniform real-space grid
  Kinetic energy operator: 8*3+1=25 point O(h^6) finite-difference Laplacian
  ScaLapack parameters: grid=1x1, blocksize=None 

Eigensolver
   Davidson(niter=1, smin=None, normalize=True) 

Densities:
  Coarse grid: 16*104*32 grid
  Fine grid: 32*208*64 grid
  Total Charge: 0.000000 

Density mixing:
  Method: separate
  Backend: pulay
  Linear mixing parameter: 0.05
  Mixing with 5 old densities
  Damping of long wave oscillations: 50 

Hamiltonian:
  XC and Coulomb potentials evaluated on a 32*208*64 grid
  Using the PBE Exchange-Correlation functional
  Interpolation: tri-quintic (5. degree polynomial)
  Poisson solver: Jacobi solver with 5 multi-grid levels
    Coarsest grid: 2 x 13 x 4 points
    Stencil: 8*3+1=25 point O(h^6) finite-difference Laplacian
    Max iterations: 1000
    Tolerance: 2.000000e-10 

Memory estimate:
  Process memory now: 1082.56 MiB
  Calculator: 269.53 MiB
    Density: 69.97 MiB
      Arrays: 10.56 MiB
      Localized functions: 55.35 MiB
      Mixer: 4.06 MiB
    Hamiltonian: 19.00 MiB
      Arrays: 6.91 MiB
      XC: 0.00 MiB
      Poisson: 7.89 MiB
      vbar: 4.20 MiB
    Wavefunctions: 180.56 MiB
      Arrays psit_nG: 82.88 MiB
      Eigensolver: 88.09 MiB
      Projections: 0.82 MiB
      Projectors: 8.78 MiB

Total number of cores used: 1

Number of atoms: 36
Number of atomic orbitals: 204
Number of bands in calculation: 204
Bands to converge: occupied states only
Number of valence electrons: 262

... initialized

Initializing position-dependent things.

Density initialized from atomic densities
Creating initial wave functions:
  204 bands from LCAO basis set

                                
                                
                                
                                
                       F        
                                
                 F              
                                
                      F         
               F Fee            
             O       F          
                  FFe           
                  F             
           F FeF      Fe        
            F    F  F           
         F     Fe               
             FF    F            
         FeF                    
       F    F   F               
           Fe                   
         F Fe  F                
       O     Fe                 
                                
       Fe                       
                                
                                
                                
                                

Positions:
   0 Fe    -0.012692    3.425973    3.405553    ( 0.0000,  0.0000,  0.0000)
   1 Fe    -0.012692   17.123411    3.405553    ( 0.0000,  0.0000,  0.0000)
   2 Fe    -0.000035   13.700665    0.009448    ( 0.0000,  0.0000,  0.0000)
   3 Fe    -0.000278    6.848719    0.074558    ( 0.0000,  0.0000,  0.0000)
   4 Fe     1.626314    3.411629    0.000027    ( 0.0000,  0.0000,  0.0000)
   5 Fe     1.626314   17.137755    0.000027    ( 0.0000,  0.0000,  0.0000)
   6 Fe     1.613657   13.686321    3.396133    ( 0.0000,  0.0000,  0.0000)
   7 Fe     1.613657    6.746404    3.396133    ( 0.0000,  0.0000,  0.0000)
   8 Fe    -0.000308    0.000000    0.082607    ( 0.0000,  0.0000,  0.0000)
   9 Fe    -0.012965   10.274692    3.478712    ( 0.0000,  0.0000,  0.0000)
  10 Fe     1.614356    0.000000    3.208640    ( 0.0000,  0.0000,  0.0000)
  11 Fe     1.601699   10.274692    6.604746    ( 0.0000,  0.0000,  0.0000)
  12 O     -0.007780    0.000000    2.087539    ( 0.0000,  0.0000,  0.0000)
  13 O     -0.020615   10.274692    5.531319    ( 0.0000,  0.0000,  0.0000)
  14 F     -0.005146    3.455769    1.380850    ( 0.0000,  0.0000,  0.0000)
  15 F     -0.005146   17.093615    1.380850    ( 0.0000,  0.0000,  0.0000)
  16 F     -0.017803   13.730461    4.776955    ( 0.0000,  0.0000,  0.0000)
  17 F     -0.017803    6.818923    4.776955    ( 0.0000,  0.0000,  0.0000)
  18 F     -0.020235    3.460146    5.429327    ( 0.0000,  0.0000,  0.0000)
  19 F     -0.020235   17.089238    5.429327    ( 0.0000,  0.0000,  0.0000)
  20 F     -0.007578   13.734838    2.033221    ( 0.0000,  0.0000,  0.0000)
  21 F     -0.007578    6.814546    2.033221    ( 0.0000,  0.0000,  0.0000)
  22 F      1.601093    1.405002    6.767331    ( 0.0000,  0.0000,  0.0000)
  23 F      1.601093   19.144382    6.767331    ( 0.0000,  0.0000,  0.0000)
  24 F      1.613750   11.679694    3.371226    ( 0.0000,  0.0000,  0.0000)
  25 F      1.645655    8.869690    3.371226    ( 0.0000,  0.0000,  0.0000)
  26 F      1.613513    2.017621    3.434678    ( 0.0000,  0.0000,  0.0000)
  27 F      1.613513   18.531763    3.434678    ( 0.0000,  0.0000,  0.0000)
  28 F      1.626170   12.292313    0.038573    ( 0.0000,  0.0000,  0.0000)
  29 F      1.626253    8.240488    0.016356    ( 0.0000,  0.0000,  0.0000)
  30 F      1.644883    4.809789    3.406464    ( 0.0000,  0.0000,  0.0000)
  31 F      1.613618   15.739595    3.406464    ( 0.0000,  0.0000,  0.0000)
  32 F      1.626275   15.084481    0.010358    ( 0.0000,  0.0000,  0.0000)
  33 F      1.656616    5.464903    0.010358    ( 0.0000,  0.0000,  0.0000)
  34 F     -0.017587    0.000000    4.718827    ( 0.0000,  0.0000,  0.0000)
  35 F     -0.004930   10.274692    1.322722    ( 0.0000,  0.0000,  0.0000)

Unit cell:
           periodic     x           y           z      points  spacing
  1. axis:    yes    3.252628    0.000000    0.000000    16     0.2033
  2. axis:    yes    0.000000   20.549384    0.000000   104     0.1976
  3. axis:    yes   -0.025314    0.000000    6.792211    32     0.2123

  Lengths:   3.252628  20.549384   6.792258
  Angles:   90.000000  90.213536  90.000000

Effective grid spacing dv^(1/3) = 0.2043

                     log10-error:    total        iterations:
           time      wfs    density  energy       fermi  poisson
iter:   1  08:59:41  +1.74   +inf  -213.573747    3      19     
iter:   2  08:59:49  +0.20   +inf  -214.473149    3             
iter:   3  08:59:58  -0.38   +inf  -214.732759    2             
iter:   4  09:00:08  -0.64  -1.12  -212.382020    3      9      
iter:   5  09:00:19  -0.22  -1.16  -228.626134    36     11     
iter:   6  09:00:30  -0.27  -1.15  -256.148760    3      15     
iter:   7  09:00:41  -0.30  -1.17  -218.795946    4      15     
iter:   8  09:00:52  -0.65  -1.26  -214.001655    3      13     
iter:   9  09:01:03  -0.63  -1.27  -233.175523    34     14     
iter:  10  09:01:13  -0.70  -1.15  -215.776069    3      14     
iter:  11  09:01:24  -0.97  -1.31  -208.097597    3      13     
iter:  12  09:01:35  -1.53  -1.42  -206.671571    3      10     
iter:  13  09:01:46  -1.86  -1.47  -207.003208    3      9      
iter:  14  09:01:56  -1.71  -1.46  -210.453051    3      12     
iter:  15  09:02:07  -1.47  -1.36  -212.022085    3      13     
iter:  16  09:02:18  -1.48  -1.32  -207.536594    3      12     
iter:  17  09:02:29  -1.58  -1.47  -206.640721    2      9      
iter:  18  09:02:39  -1.79  -1.51  -207.304754    3      7      
iter:  19  09:02:50  -1.69  -1.49  -206.412529    3      8      
iter:  20  09:03:00  -2.33  -1.53  -207.052229    3      9      
iter:  21  09:03:11  -1.75  -1.52  -212.812199    3      13     
iter:  22  09:03:22  -1.46  -1.33  -209.643559    3      13     
iter:  23  09:03:33  -1.62  -1.45  -210.409758    3      13     
iter:  24  09:03:44  -1.60  -1.42  -206.644317    2      12     
iter:  25  09:03:54  -1.90  -1.61  -206.859164    2      10     
iter:  26  09:04:05  -2.09  -1.60  -206.200489    3      9      
iter:  27  09:04:16  -2.14  -1.63  -209.945332    3      12     
iter:  28  09:04:27  -1.75  -1.45  -208.256805    3      13     
iter:  29  09:04:37  -1.75  -1.53  -211.724872    3      13     
iter:  30  09:04:48  -1.70  -1.40  -206.373926    2      12     
iter:  31  09:04:59  -1.97  -1.66  -206.642903    3      8      
iter:  32  09:05:09  -1.82  -1.68  -206.564891    3      8      
iter:  33  09:05:20  -2.26  -1.67  -207.915783    4      10     
iter:  34  09:05:31  -1.93  -1.60  -210.015483    3      12     
iter:  35  09:05:42  -1.45  -1.51  -225.941398    4      14     
iter:  36  09:05:53  -1.23  -1.28  -207.246357    4      14     
iter:  37  09:06:03  -1.74  -1.67  -206.660956    3      10     
iter:  38  09:06:14  -2.14  -1.75  -207.378898    3      10     
iter:  39  09:06:25  -2.29  -1.68  -206.755889    2      8      
iter:  40  09:06:35  -1.71  -1.75  -218.786766    3      13     
iter:  41  09:06:46  -1.42  -1.35  -211.492942    3      13     
iter:  42  09:06:57  -1.59  -1.48  -206.901623    3      12     
iter:  43  09:07:08  -2.25  -1.75  -206.571337    2      8      
iter:  44  09:07:18  -2.33  -1.80  -207.468752    3      9      
iter:  45  09:07:29  -2.09  -1.72  -206.630423    3      10     
iter:  46  09:07:40  -1.87  -1.81  -211.520222    3      12     
iter:  47  09:07:50  -1.55  -1.51  -208.496190    3      13     
iter:  48  09:08:01  -1.75  -1.66  -206.763425    3      11     
iter:  49  09:08:12  -2.14  -1.84  -206.640726    2      9      
iter:  50  09:08:23  -1.76  -1.85  -214.587256    3      12     
iter:  51  09:08:33  -1.65  -1.41  -206.534386    3      13     
iter:  52  09:08:44  -1.96  -1.89  -209.072432    3      11     
iter:  53  09:08:55  -1.83  -1.66  -207.385168    3      11     
iter:  54  09:09:06  -2.30  -1.78  -206.558309    2      10     
iter:  55  09:09:16  -2.79  -1.92  -206.607323    2      8      
iter:  56  09:09:27  -1.53  -1.91  -222.653313    4      13     
iter:  57  09:09:38  -1.36  -1.34  -206.500015    3      13     
iter:  58  09:09:49  -2.04  -1.97  -207.822282    3      10     
iter:  59  09:09:59  -2.10  -1.78  -206.862072    3      10     
iter:  60  09:10:10  -2.55  -1.90  -206.628125    2      8      
iter:  61  09:10:20  -2.76  -1.95  -206.516001    3      9      
iter:  62  09:10:31  -1.77  -2.00  -213.897307    3      12     
iter:  63  09:10:42  -1.54  -1.47  -206.459194    3      12     
iter:  64  09:10:53  -2.34  -2.02  -206.753065    3      8      
iter:  65  09:11:03  -2.63  -1.95  -206.412315    2      8      
iter:  66  09:11:14  -2.90  -2.07  -206.574592    2      7      
iter:  67  09:11:24  -2.65  -2.03  -206.729835    3      9      
iter:  68  09:11:35  -1.84  -1.96  -212.144708    3      12     
iter:  69  09:11:46  -1.61  -1.53  -206.422500    3      12     
iter:  70  09:11:56  -2.44  -2.11  -206.450803    3      7      
iter:  71  09:12:07  -2.54  -2.13  -206.536665    3      8      
iter:  72  09:12:18  -2.90  -2.08  -206.475584    2      8      
iter:  73  09:12:28  -2.94  -2.13  -206.526719    2      9      
iter:  74  09:12:39  -2.29  -2.13  -207.541733    3      11     
iter:  75  09:12:50  -2.10  -1.94  -206.346000    3      10     
iter:  76  09:13:00  -2.57  -2.23  -206.443597    2      7      
iter:  77  09:13:11  -2.64  -2.17  -206.369643    2      6      
iter:  78  09:13:21  -3.26  -2.29  -206.329284    2      8      
iter:  79  09:13:32  -3.62  -2.31  -206.297804    2      6      
iter:  80  09:13:42  -3.02  -2.37  -206.620458    3      9      
iter:  81  09:13:53  -2.95  -2.12  -206.304814    3      8      
iter:  82  09:14:03  -3.02  -2.36  -206.430375    2      8      
iter:  83  09:14:14  -2.81  -2.22  -206.337537    2      8      
iter:  84  09:14:24  -3.08  -2.34  -206.406510    2      8      
iter:  85  09:14:35  -2.88  -2.32  -206.504007    2      9      
iter:  86  09:14:46  -3.02  -2.20  -206.310195    2      8      
iter:  87  09:14:56  -2.90  -2.59  -206.345640    2      7      
iter:  88  09:15:07  -2.66  -2.45  -206.378298    2      8      
iter:  89  09:15:17  -2.94  -2.37  -206.278271    2      8      
iter:  90  09:15:28  -3.68  -2.75  -206.275967    2      6      
iter:  91  09:15:38  -3.69  -2.78  -206.337728    2      7      
iter:  92  09:15:49  -3.60  -2.47  -206.263907    2      7      
iter:  93  09:15:59  -3.68  -2.90  -206.264114    2      6      
iter:  94  09:16:10  -3.71  -2.92  -206.260217    2      5      
iter:  95  09:16:20  -3.63  -2.99  -206.283870    2      6      
iter:  96  09:16:31  -3.53  -2.61  -206.263624    2      7      
iter:  97  09:16:41  -4.00  -2.87  -206.270911    2      6      
iter:  98  09:16:51  -4.16  -2.81  -206.256615    2      6      
iter:  99  09:17:02  -4.35  -3.01  -206.258892    2      4      
iter: 100  09:17:12  -4.52  -3.05  -206.253329    2      4      
iter: 101  09:17:23  -4.35  -3.10  -206.254116    2      5      
iter: 102  09:17:33  -4.08  -3.04  -206.255972    2      4      
iter: 103  09:17:43  -4.55  -3.10  -206.256184    2      5      
iter: 104  09:17:54  -4.36  -3.00  -206.264332    2      5      
iter: 105  09:18:04  -4.09  -2.89  -206.258651    2      5      
iter: 106  09:18:15  -4.25  -2.97  -206.253180    2      5      
iter: 107  09:18:25  -4.63  -3.23  -206.253137    2      5      
iter: 108  09:18:35  -4.44  -3.22  -206.253147    2      4      
iter: 109  09:18:46  -4.58  -3.22  -206.260035    2      5      
iter: 110  09:18:56  -4.31  -2.95  -206.260391    2      5      
iter: 111  09:19:07  -4.25  -3.06  -206.265489    2      6      
iter: 112  09:19:17  -4.28  -2.93  -206.250711    2      5      
iter: 113  09:19:27  -4.74  -3.27  -206.253410    2      4      
iter: 114  09:19:38  -4.83  -3.29  -206.251759    2      4      
iter: 115  09:19:48  -5.24  -3.39  -206.251029    2      3      
iter: 116  09:19:58  -5.03  -3.41  -206.256291    2      5      
iter: 117  09:20:09  -4.88  -3.05  -206.251663    2      4      
iter: 118  09:20:19  -5.03  -3.34  -206.253453    2      4      
iter: 119  09:20:30  -4.96  -3.40  -206.250588    2      5      
iter: 120  09:20:40  -4.71  -3.22  -206.253531    2      4      
iter: 121  09:20:50  -4.97  -3.42  -206.254696    2      3      
iter: 122  09:21:01  -4.69  -3.40  -206.259787    2      5      
iter: 123  09:21:11  -4.75  -2.99  -206.254644    2      5      
iter: 124  09:21:21  -4.90  -3.51  -206.252420    2      4      
iter: 125  09:21:32  -4.65  -3.26  -206.251618    2      5      
iter: 126  09:21:42  -4.52  -3.17  -206.252493    2      4      
iter: 127  09:21:52  -5.13  -3.56  -206.251701    2      3      
iter: 128  09:22:03  -5.24  -3.45  -206.253560    2      4      
iter: 129  09:22:13  -5.31  -3.26  -206.252966    2      4      
iter: 130  09:22:23  -5.07  -3.51  -206.255991    2      4      
iter: 131  09:22:34  -4.67  -3.41  -206.250199    2      4      
iter: 132  09:22:44  -4.82  -3.29  -206.251606    2      4      
iter: 133  09:22:54  -5.34  -3.62  -206.251991    2      3      
iter: 134  09:23:05  -6.18  -3.80  -206.252014    1      2      
iter: 135  09:23:15  -6.34  -3.78  -206.251973    1      2      
iter: 136  09:23:25  -5.86  -3.78  -206.253131    2      3      
iter: 137  09:23:35  -5.26  -3.67  -206.250109    2      3      
iter: 138  09:23:46  -5.36  -3.51  -206.251721    2      3      
iter: 139  09:23:56  -5.55  -3.83  -206.251992    2      3      
iter: 140  09:24:06  -5.58  -3.79  -206.252844    2      4      
iter: 141  09:24:17  -5.74  -3.54  -206.252116    2      3      
iter: 142  09:24:27  -6.39  -3.92  -206.251456    2      2      
iter: 143  09:24:37  -5.93  -3.90  -206.252348    2      4      
iter: 144  09:24:48  -5.68  -3.56  -206.251593    2      3      
iter: 145  09:24:58  -5.60  -3.66  -206.252364    2      3      
iter: 146  09:25:08  -5.75  -3.88  -206.251320    2      3      
iter: 147  09:25:18  -5.94  -3.83  -206.252019    2      3      
iter: 148  09:25:29  -6.27  -3.80  -206.251604    1      2      
iter: 149  09:25:39  -6.49  -3.91  -206.252058    2      3      
iter: 150  09:25:49  -5.48  -3.91  -206.253611    2      5      
iter: 151  09:26:00  -5.25  -3.26  -206.251734    2      4      
iter: 152  09:26:10  -6.12  -4.04  -206.251746    1      2      
iter: 153  09:26:20  -6.08  -4.04  -206.251339    2      3      
iter: 154  09:26:31  -5.99  -3.87  -206.252229    2      3      
iter: 155  09:26:41  -6.30  -3.99  -206.251298    2      3      
iter: 156  09:26:51  -5.73  -4.00  -206.252386    1      4      
iter: 157  09:27:02  -5.77  -3.60  -206.251722    2      4      
iter: 158  09:27:12  -6.05  -4.34  -206.251722    2      3      
iter: 159  09:27:22  -6.06  -4.06  -206.251249    2      3      
iter: 160  09:27:33  -6.52  -4.05  -206.251523    2      3      
iter: 161  09:27:43  -6.94  -4.40  -206.251834    1      2      
iter: 162  09:27:53  -7.43  -4.46  -206.251656    1      1      

Converged after 162 iterations.

Dipole moment: (-24.920223, -31.032524, -34.900908) |e|*Ang

Energy contributions relative to reference atoms: (reference = -479224.937077)

Kinetic:       +175.306200
Potential:     -179.608033
External:        +0.000000
XC:            -212.554357
Entropy (-ST):   -1.401308
Local:          +11.305188
--------------------------
Free energy:   -206.952310
Extrapolated:  -206.251656

Fermi level: 3.83772

 Band  Eigenvalues  Occupancy
    0    -20.94755    2.00000
    1    -20.77738    2.00000
    2    -20.73309    2.00000
    3    -20.63103    2.00000
    4    -20.62101    2.00000
    5    -20.40632    2.00000
    6    -20.39150    2.00000
    7    -20.36239    2.00000
    8    -20.34790    2.00000
    9    -20.34229    2.00000
   10    -20.32574    2.00000
   11    -20.29791    2.00000
   12    -20.24246    2.00000
   13    -20.21906    2.00000
   14    -20.19573    2.00000
   15    -20.17895    2.00000
   16    -20.17605    2.00000
   17    -20.15862    2.00000
   18    -20.13345    2.00000
   19    -19.88972    2.00000
   20    -19.04934    2.00000
   21    -19.00612    2.00000
   22    -14.48586    2.00000
   23    -14.44324    2.00000
   24     -4.33037    2.00000
   25     -4.21773    2.00000
   26     -4.03582    2.00000
   27     -3.96445    2.00000
   28     -3.78423    2.00000
   29     -3.57121    2.00000
   30     -3.48817    2.00000
   31     -3.36669    2.00000
   32     -3.36075    2.00000
   33     -3.19957    2.00000
   34     -2.83726    2.00000
   35     -2.71627    2.00000
   36     -2.68129    2.00000
   37     -2.58691    2.00000
   38     -2.57255    2.00000
   39     -2.48642    2.00000
   40     -2.46543    2.00000
   41     -2.43015    2.00000
   42     -2.42091    2.00000
   43     -2.41179    2.00000
   44     -2.40527    2.00000
   45     -2.39333    2.00000
   46     -2.32768    2.00000
   47     -2.32566    2.00000
   48     -2.30706    2.00000
   49     -2.27973    2.00000
   50     -2.26777    2.00000
   51     -2.23922    2.00000
   52     -2.20973    2.00000
   53     -2.19892    2.00000
   54     -2.19172    2.00000
   55     -2.18871    2.00000
   56     -2.18511    2.00000
   57     -2.14400    2.00000
   58     -2.11529    2.00000
   59     -2.07422    2.00000
   60     -2.01625    2.00000
   61     -1.93499    2.00000
   62     -1.91825    2.00000
   63     -1.79165    2.00000
   64     -1.71979    2.00000
   65     -1.68513    2.00000
   66     -1.63300    2.00000
   67     -1.62179    2.00000
   68     -1.59887    2.00000
   69     -1.56758    2.00000
   70     -1.47041    2.00000
   71     -1.44181    2.00000
   72     -1.37537    2.00000
   73     -1.35125    2.00000
   74     -1.32254    2.00000
   75     -1.31293    2.00000
   76     -1.29384    2.00000
   77     -1.21369    2.00000
   78     -1.20350    2.00000
   79     -1.19256    2.00000
   80     -1.12558    2.00000
   81     -1.11862    2.00000
   82     -1.11320    2.00000
   83     -1.03444    2.00000
   84     -0.96210    2.00000
   85     -0.93395    2.00000
   86     -0.78101    2.00000
   87     -0.71863    2.00000
   88     -0.11416    2.00000
   89     -0.10294    2.00000
   90     -0.07624    2.00000
   91     -0.05740    2.00000
   92      0.07558    2.00000
   93      0.13195    2.00000
   94      0.67320    2.00000
   95      0.68901    2.00000
   96      2.81376    1.99993
   97      2.85224    1.99990
   98      2.88093    1.99986
   99      2.89900    1.99983
  100      2.90961    1.99981
  101      2.95500    1.99971
  102      2.96456    1.99968
  103      2.97027    1.99966
  104      2.98766    1.99959
  105      2.99652    1.99956
  106      3.06444    1.99912
  107      3.10155    1.99873
  108      3.14735    1.99799
  109      3.16102    1.99770
  110      3.16642    1.99757
  111      3.16926    1.99750
  112      3.17288    1.99741
  113      3.22580    1.99561
  114      3.23209    1.99532
  115      3.24287    1.99479
  116      3.26475    1.99352
  117      3.28232    1.99229
  118      3.28815    1.99182
  119      3.29707    1.99107
  120      3.32821    1.98782
  121      3.33840    1.98652
  122      3.34958    1.98494
  123      3.45711    1.95650
  124      3.49451    1.93739
  125      3.56188    1.88078
  126      3.63336    1.77060
  127      3.65282    1.72801
  128      3.76064    1.36740
  129      3.76369    1.35410
  130      3.80006    1.18608
  131      3.85354    0.92106
  132      3.91233    0.64332
  133      3.96368    0.44207
  134      3.97631    0.40012
  135      4.08481    0.15585
  136      4.14599    0.08765
  137      4.20333    0.05036
  138      4.21752    0.04385
  139      4.23187    0.03810
  140      4.24764    0.03263
  141      4.24994    0.03190
  142      4.26369    0.02786
  143      4.34425    0.01254
  144      4.35314    0.01148
  145      4.43473    0.00510
  146      4.44473    0.00461
  147      4.44535    0.00458
  148      4.44720    0.00450
  149      4.47849    0.00329
  150      4.60198    0.00096
  151      4.96560    0.00003
  152      5.14906    0.00000
  153      5.27436    0.00000
  154      5.31778    0.00000
  155      5.35981    0.00000
  156      5.99090    0.00000
  157      6.46087    0.00000
  158      6.83761    0.00000
  159      8.12197    0.00000
  160      8.33333    0.00000
  161      9.66810    0.00000
  162      9.91994    0.00000
  163     10.02706    0.00000
  164     10.33813    0.00000
  165     10.35190    0.00000
  166     10.40940    0.00000
  167     10.43549    0.00000
  168     10.73505    0.00000
  169     10.75081    0.00000
  170     10.92113    0.00000
  171     11.00219    0.00000
  172     11.38874    0.00000
  173     11.54754    0.00000
  174     11.67098    0.00000
  175     12.02036    0.00000
  176     12.12092    0.00000
  177     12.82801    0.00000
  178     13.09759    0.00000
  179     13.38484    0.00000
  180     14.36327    0.00000
  181     14.56006    0.00000
  182     14.94214    0.00000
  183     14.96206    0.00000
  184     15.14939    0.00000
  185     15.52484    0.00000
  186     15.58509    0.00000
  187     15.78207    0.00000
  188     16.18072    0.00000
  189     16.23411    0.00000
  190     16.42112    0.00000
  191     16.44232    0.00000
  192     16.48033    0.00000
  193     16.85269    0.00000
  194     16.89665    0.00000
  195     16.95305    0.00000
  196     16.97699    0.00000
  197     16.99185    0.00000
  198     17.11705    0.00000
  199     17.14258    0.00000
  200     17.33502    0.00000
  201     17.36731    0.00000
  202     17.42545    0.00000
  203     17.60989    0.00000

Timing:                              incl.     excl.
-----------------------------------------------------------
Hamiltonian:                         3.013     0.000   0.0% |
 Atomic:                             1.631     0.003   0.0% |
  XC Correction:                     1.628     1.628   0.1% |
 Calculate atomic Hamiltonians:      0.014     0.014   0.0% |
 Communicate:                        0.000     0.000   0.0% |
 Hartree integrate/restrict:         0.005     0.005   0.0% |
 Initialize Hamiltonian:             0.000     0.000   0.0% |
 Poisson:                            1.043     1.043   0.1% |
 XC 3D grid:                         0.317     0.317   0.0% |
 vbar:                               0.003     0.003   0.0% |
LCAO initialization:                 9.638     0.225   0.0% |
 LCAO eigensolver:                   1.366     0.000   0.0% |
  Calculate projections:             0.008     0.008   0.0% |
  DenseAtomicCorrection:             0.008     0.008   0.0% |
  Distribute overlap matrix:         0.000     0.000   0.0% |
  Orbital Layouts:                   0.024     0.024   0.0% |
  Potential matrix:                  1.326     1.326   0.1% |
 LCAO to grid:                       7.097     7.097   0.4% |
 Set positions (LCAO WFS):           0.950     0.000   0.0% |
  Basic WFS set positions:           0.001     0.001   0.0% |
  Basis functions set positions:     0.000     0.000   0.0% |
  TCI: Calculate S, T, P:            0.948     0.948   0.1% |
SCF-cycle:                        1701.475     0.126   0.0% |
 Davidson:                        1314.246   260.343  15.2% |-----|
  Apply hamiltonian:                39.429    39.429   2.3% ||
  Subspace diag:                   362.256     0.023   0.0% |
   calc_h_matrix:                  147.448   107.695   6.3% |--|
    Apply hamiltonian:              39.753    39.753   2.3% ||
   diagonalize:                      1.789     1.789   0.1% |
   rotate_psi:                     212.995   212.995  12.4% |----|
  calc. matrices:                  431.470   392.028  22.9% |--------|
   Apply hamiltonian:               39.443    39.443   2.3% ||
  diagonalize:                       6.262     6.262   0.4% |
  rotate_psi:                      214.486   214.486  12.5% |----|
 Density:                            7.027     0.004   0.0% |
  Atomic density matrices:           0.570     0.570   0.0% |
  Mix:                               3.680     3.680   0.2% |
  Multipole moments:                 0.134     0.134   0.0% |
  Pseudo density:                    2.638     2.635   0.2% |
   Symmetrize density:               0.004     0.004   0.0% |
 Hamiltonian:                      378.371     0.017   0.0% |
  Atomic:                          259.672     0.536   0.0% |
   XC Correction:                  259.135   259.135  15.1% |-----|
  Calculate atomic Hamiltonians:     2.210     2.210   0.1% |
  Communicate:                       0.001     0.001   0.0% |
  Hartree integrate/restrict:        0.826     0.826   0.0% |
  Poisson:                          64.792    64.792   3.8% |-|
  XC 3D grid:                       50.421    50.421   2.9% ||
  vbar:                              0.433     0.433   0.0% |
 Orthonormalize:                     1.705     0.000   0.0% |
  calc_s_matrix:                     0.431     0.431   0.0% |
  inverse-cholesky:                  0.002     0.002   0.0% |
  projections:                       0.587     0.587   0.0% |
  rotate_psi_s:                      0.685     0.685   0.0% |
Set symmetry:                        0.001     0.001   0.0% |
Other:                               1.001     1.001   0.1% |
-----------------------------------------------------------
Total:                                      1715.127 100.0%

Memory usage: 1.06 GiB
Date: Mon Jan 28 09:27:53 2019
