<?xml version="1.0" encoding="ISO-8859-1"?>
<modeling>
 <generator>
  <i name="program" type="string">vasp </i>
  <i name="version" type="string">5.3.5  </i>
  <i name="subversion" type="string">31Mar14 (build Aug 29 2014 19:41:47) complex                          parallel </i>
  <i name="platform" type="string">LinuxIFC </i>
  <i name="date" type="string">2019 04 11 </i>
  <i name="time" type="string">16:17:04 </i>
 </generator>
 <incar>
  <i type="string" name="SYSTEM"> Fe6OF11_var_26</i>
  <i type="int" name="ISTART">     0</i>
  <i type="string" name="PREC">normal</i>
  <i type="string" name="ALGO"> VeryFast</i>
  <i type="int" name="ISPIN">     1</i>
  <i type="int" name="ICHARG">     2</i>
  <i type="int" name="NELM">   300</i>
  <i type="int" name="ISYM">     0</i>
  <i type="logical" name="LWAVE"> F  </i>
  <i type="int" name="NELM">   300</i>
 </incar>
 <kpoints>
  <generation param="Gamma">
   <v type="int" name="divisions">       1        1        1 </v>
   <v name="usershift">      0.00000000       0.00000000       0.00000000 </v>
   <v name="genvec1">      1.00000000       0.00000000       0.00000000 </v>
   <v name="genvec2">      0.00000000       1.00000000       0.00000000 </v>
   <v name="genvec3">      0.00000000       0.00000000       1.00000000 </v>
   <v name="shift">      0.00000000       0.00000000       0.00000000 </v>
  </generation>
  <varray name="kpointlist" >
   <v>       0.00000000       0.00000000       0.00000000 </v>
  </varray>
  <varray name="weights" >
   <v>       1.00000000 </v>
  </varray>
 </kpoints>
 <parameters>
  <separator name="general" >
   <i type="string" name="SYSTEM">Fe6OF11_var_26</i>
   <i type="logical" name="LCOMPAT"> F  </i>
  </separator>
  <separator name="electronic" >
   <i type="string" name="PREC">normal</i>
   <i name="ENMAX">    400.00000000</i>
   <i name="ENAUG">    613.61400000</i>
   <i name="EDIFF">      0.00010000</i>
   <i type="int" name="IALGO">    48</i>
   <i type="int" name="IWAVPR">    10</i>
   <i type="int" name="NBANDS">   160</i>
   <i name="NELECT">    262.00000000</i>
   <i type="int" name="TURBO">     0</i>
   <i type="int" name="IRESTART">     0</i>
   <i type="int" name="NREBOOT">     0</i>
   <i type="int" name="NMIN">     0</i>
   <i name="EREF">      0.00000000</i>
   <separator name="electronic smearing" >
    <i type="int" name="ISMEAR">     1</i>
    <i name="SIGMA">      0.20000000</i>
    <i name="KSPACING">      0.50000000</i>
    <i type="logical" name="KGAMMA"> T  </i>
   </separator>
   <separator name="electronic projectors" >
    <i type="logical" name="LREAL"> F  </i>
    <v name="ROPT">      0.00000000      0.00000000      0.00000000</v>
    <i type="int" name="LMAXPAW">  -100</i>
    <i type="int" name="LMAXMIX">     2</i>
    <i type="logical" name="NLSPLINE"> F  </i>
   </separator>
   <separator name="electronic startup" >
    <i type="int" name="ISTART">     0</i>
    <i type="int" name="ICHARG">     2</i>
    <i type="int" name="INIWAV">     1</i>
   </separator>
   <separator name="electronic spin" >
    <i type="int" name="ISPIN">     1</i>
    <i type="logical" name="LNONCOLLINEAR"> F  </i>
    <v name="MAGMOM">      1.00000000      1.00000000      1.00000000      1.00000000      1.00000000      1.00000000      1.00000000      1.00000000      1.00000000      1.00000000      1.00000000      1.00000000      1.00000000      1.00000000      1.00000000      1.00000000      1.00000000      1.00000000      1.00000000      1.00000000
      1.00000000      1.00000000      1.00000000      1.00000000      1.00000000      1.00000000      1.00000000      1.00000000      1.00000000      1.00000000      1.00000000      1.00000000      1.00000000      1.00000000      1.00000000      1.00000000</v>
    <i name="NUPDOWN">     -1.00000000</i>
    <i type="logical" name="LSORBIT"> F  </i>
    <v name="SAXIS">      0.00000000      0.00000000      1.00000000</v>
    <i type="logical" name="LSPIRAL"> F  </i>
    <v name="QSPIRAL">      0.00000000      0.00000000      0.00000000</v>
    <i type="logical" name="LZEROZ"> F  </i>
   </separator>
   <separator name="electronic exchange-correlation" >
    <i type="logical" name="LASPH"> F  </i>
    <i type="logical" name="LMETAGGA"> F  </i>
   </separator>
   <separator name="electronic convergence" >
    <i type="int" name="NELM">   300</i>
    <i type="int" name="NELMDL">   -12</i>
    <i type="int" name="NELMIN">     2</i>
    <i name="ENINI">    400.00000000</i>
    <separator name="electronic convergence detail" >
     <i type="logical" name="LDIAG"> T  </i>
     <i type="logical" name="LSUBROT"> F  </i>
     <i name="WEIMIN">      0.00000000</i>
     <i name="EBREAK">      0.00000016</i>
     <i name="DEPER">      0.30000000</i>
     <i type="int" name="NRMM">     4</i>
     <i name="TIME">      0.40000000</i>
    </separator>
   </separator>
   <separator name="electronic mixer" >
    <i name="AMIX">      0.40000000</i>
    <i name="BMIX">      1.00000000</i>
    <i name="AMIN">      0.10000000</i>
    <i name="AMIX_MAG">      1.60000000</i>
    <i name="BMIX_MAG">      1.00000000</i>
    <separator name="electronic mixer details" >
     <i type="int" name="IMIX">     4</i>
     <i type="int" name="MAXMIX">   -45</i>
     <i name="WC">    100.00000000</i>
     <i type="int" name="INIMIX">     1</i>
     <i type="int" name="MIXPRE">     1</i>
     <i type="int" name="MREMOVE">     5</i>
    </separator>
   </separator>
   <separator name="electronic dipolcorrection" >
    <i type="logical" name="LDIPOL"> F  </i>
    <i type="logical" name="LMONO"> F  </i>
    <i type="int" name="IDIPOL">     0</i>
    <i name="EPSILON">      1.00000000</i>
    <v name="DIPOL">   -100.00000000   -100.00000000   -100.00000000</v>
    <i name="EFIELD">      0.00000000</i>
   </separator>
  </separator>
  <separator name="grids" >
   <i type="int" name="NGX">    16</i>
   <i type="int" name="NGY">   108</i>
   <i type="int" name="NGZ">    36</i>
   <i type="int" name="NGXF">    32</i>
   <i type="int" name="NGYF">   216</i>
   <i type="int" name="NGZF">    72</i>
   <i type="logical" name="ADDGRID"> F  </i>
  </separator>
  <separator name="ionic" >
   <i type="int" name="NSW">     0</i>
   <i type="int" name="IBRION">    -1</i>
   <i type="int" name="ISIF">     2</i>
   <i name="PSTRESS">      0.00000000</i>
   <i name="EDIFFG">      0.00100000</i>
   <i type="int" name="NFREE">     0</i>
   <i name="POTIM">      0.50000000</i>
   <i name="SMASS">     -3.00000000</i>
   <i name="SCALEE">      1.00000000</i>
  </separator>
  <separator name="ionic md" >
   <i name="TEBEG">      0.00010000</i>
   <i name="TEEND">      0.00010000</i>
   <i type="int" name="NBLOCK">     1</i>
   <i type="int" name="KBLOCK">     1</i>
   <i type="int" name="NPACO">   256</i>
   <i name="APACO">     16.00000000</i>
  </separator>
  <separator name="symmetry" >
   <i type="int" name="ISYM">     0</i>
   <i name="SYMPREC">      0.00001000</i>
  </separator>
  <separator name="dos" >
   <i type="logical" name="LORBIT"> F  </i>
   <v name="RWIGS">     -1.00000000     -1.00000000     -1.00000000</v>
   <i type="int" name="NEDOS">   301</i>
   <i name="EMIN">     10.00000000</i>
   <i name="EMAX">    -10.00000000</i>
   <i name="EFERMI">      0.00000000</i>
  </separator>
  <separator name="writing" >
   <i type="int" name="NWRITE">     2</i>
   <i type="logical" name="LWAVE"> F  </i>
   <i type="logical" name="LCHARG"> T  </i>
   <i type="logical" name="LPARD"> F  </i>
   <i type="logical" name="LVTOT"> F  </i>
   <i type="logical" name="LVHAR"> F  </i>
   <i type="logical" name="LELF"> F  </i>
   <i type="logical" name="LOPTICS"> F  </i>
   <v name="STM">      0.00000000      0.00000000      0.00000000      0.00000000      0.00000000      0.00000000      0.00000000</v>
  </separator>
  <separator name="performance" >
   <i type="int" name="NPAR">     4</i>
   <i type="int" name="NSIM">     4</i>
   <i type="int" name="NBLK">    -1</i>
   <i type="logical" name="LPLANE"> T  </i>
   <i type="logical" name="LSCALAPACK"> T  </i>
   <i type="logical" name="LSCAAWARE"> F  </i>
   <i type="logical" name="LSCALU"> F  </i>
   <i type="logical" name="LASYNC"> F  </i>
   <i type="logical" name="LORBITALREAL"> F  </i>
  </separator>
  <separator name="miscellaneous" >
   <i type="int" name="IDIOT">     3</i>
   <i type="logical" name="LMUSIC"> F  </i>
   <v name="POMASS">     55.84700000     16.00000000     18.99800000</v>
   <v name="DARWINR">      0.00000000      0.00000000      0.00000000</v>
   <v name="DARWINV">      1.00000000      1.00000000      1.00000000</v>
   <i type="logical" name="LCORR"> T  </i>
  </separator>
  <i type="logical" name="GGA_COMPAT"> T  </i>
  <i type="logical" name="LBERRY"> F  </i>
  <i type="int" name="ICORELEVEL">     0</i>
  <i type="logical" name="LDAU"> F  </i>
  <i type="int" name="I_CONSTRAINED_M">     0</i>
  <separator name="electronic exchange-correlation" >
   <i type="string" name="GGA">--</i>
   <i type="int" name="VOSKOWN">     0</i>
   <i type="logical" name="LHFCALC"> F  </i>
   <i type="string" name="PRECFOCK"></i>
   <i type="logical" name="LSYMGRAD"> F  </i>
   <i type="logical" name="LHFONE"> F  </i>
   <i type="logical" name="LRHFCALC"> F  </i>
   <i type="logical" name="LTHOMAS"> F  </i>
   <i type="logical" name="LMODELHF"> F  </i>
   <i name="ENCUT4O">     -1.00000000</i>
   <i type="int" name="EXXOEP">     0</i>
   <i type="int" name="FOURORBIT">     0</i>
   <i name="AEXX">      0.00000000</i>
   <i name="HFALPHA">      0.00000000</i>
   <i name="MCALPHA">      0.00000000</i>
   <i name="ALDAX">      1.00000000</i>
   <i name="AGGAX">      1.00000000</i>
   <i name="ALDAC">      1.00000000</i>
   <i name="AGGAC">      1.00000000</i>
   <i type="int" name="NKREDX">     1</i>
   <i type="int" name="NKREDY">     1</i>
   <i type="int" name="NKREDZ">     1</i>
   <i type="logical" name="SHIFTRED"> F  </i>
   <i type="logical" name="ODDONLY"> F  </i>
   <i type="logical" name="EVENONLY"> F  </i>
   <i type="int" name="LMAXFOCK">     0</i>
   <i type="int" name="NMAXFOCKAE">     0</i>
   <i type="logical" name="LFOCKAEDFT"> F  </i>
   <i name="HFSCREEN">      0.00000000</i>
   <i name="HFSCREENC">      0.00000000</i>
   <i type="int" name="NBANDSGWLOW">     0</i>
  </separator>
  <separator name="vdW DFT" >
   <i type="logical" name="LUSE_VDW"> F  </i>
   <i name="Zab_VDW">     -0.84910000</i>
   <i name="PARAM1">      0.12340000</i>
   <i name="PARAM2">      1.00000000</i>
   <i name="PARAM3">      0.00000000</i>
  </separator>
  <separator name="model GW" >
   <i type="int" name="MODEL_GW">     0</i>
   <i name="MODEL_EPS0">      7.56646665</i>
   <i name="MODEL_ALPHA">      1.00000000</i>
  </separator>
  <separator name="linear response parameters" >
   <i type="logical" name="LEPSILON"> F  </i>
   <i type="logical" name="LRPA"> F  </i>
   <i type="logical" name="LNABLA"> F  </i>
   <i type="logical" name="LVEL"> F  </i>
   <i type="int" name="KINTER">     0</i>
   <i name="CSHIFT">      0.10000000</i>
   <i name="OMEGAMAX">     -1.00000000</i>
   <i name="DEG_THRESHOLD">      0.00200000</i>
  </separator>
  <separator name="orbital magnetization" >
   <i type="logical" name="NUCIND"> F  </i>
   <v name="MAGPOS">      0.00000000      0.00000000      0.00000000</v>
   <i type="logical" name="LNICSALL"> T  </i>
   <i type="logical" name="ORBITALMAG"> F  </i>
   <i type="logical" name="LMAGBLOCH"> F  </i>
   <i type="logical" name="LCHIMAG"> F  </i>
   <i type="logical" name="LGAUGE"> T  </i>
   <i type="int" name="MAGATOM">     0</i>
   <v name="MAGDIPOL">      0.00000000      0.00000000      0.00000000</v>
   <v name="AVECCONST">      0.00000000      0.00000000      0.00000000</v>
  </separator>
  <separator name="response functions" >
   <i type="logical" name="LADDER"> F  </i>
   <i type="logical" name="LFXC"> F  </i>
   <i type="logical" name="LHARTREE"> T  </i>
   <i type="int" name="IBSE">     0</i>
   <i type="logical" name="LTCTE"> F  </i>
   <i type="logical" name="LTETE"> F  </i>
   <i type="logical" name="LTRIPLET"> F  </i>
   <i type="logical" name="LFXCEPS"> F  </i>
   <i type="logical" name="LFXHEG"> F  </i>
   <i type="logical" name="L2ORDER"> F  </i>
   <i type="logical" name="LUSEW"> F  </i>
   <i name="ENCUTGW">     -2.00000000</i>
   <i name="ENCUTGWSOFT">     -2.00000000</i>
   <i name="ENCUTLF">     -1.00000000</i>
   <i type="int" name="LMAXMP2">    -1</i>
   <i name="SCISSOR">      0.00000000</i>
   <i type="int" name="NOMEGA">     0</i>
   <i type="int" name="NOMEGAR">     0</i>
   <i type="int" name="NBANDSGW">    -1</i>
   <i type="int" name="NBANDSO">    -1</i>
   <i type="int" name="NBANDSV">    -1</i>
   <i type="int" name="NELM">   300</i>
   <i type="int" name="DIM">     3</i>
   <i type="int" name="ANTIRES">     0</i>
   <i name="OMEGAMAX">    -30.00000000</i>
   <i name="OMEGAMIN">    -30.00000000</i>
   <i name="OMEGATL">   -200.00000000</i>
   <i type="int" name="OMEGAGRID">     0</i>
   <i name="CSHIFT">     -0.10000000</i>
   <i type="logical" name="SELFENERGY"> F  </i>
   <i type="logical" name="LSPECTRAL"> F  </i>
   <i type="logical" name="ODDONLYGW"> F  </i>
   <i type="logical" name="EVENONLYGW"> F  </i>
   <i type="int" name="NKREDLFX">     1</i>
   <i type="int" name="NKREDLFY">     1</i>
   <i type="int" name="NKREDLFZ">     1</i>
   <i type="int" name="MAXMEM">  1800</i>
   <i type="int" name="TELESCOPE">     0</i>
   <i type="int" name="TAUPAR">     1</i>
  </separator>
  <separator name="External order field" >
   <i name="OFIELD_KAPPA">      0.00000000</i>
   <v name="OFIELD_K">      0.00000000      0.00000000      0.00000000</v>
   <i name="OFIELD_Q6_NEAR">      0.00000000</i>
   <i name="OFIELD_Q6_FAR">      0.00000000</i>
   <i name="OFIELD_A">      0.00000000</i>
  </separator>
 </parameters>
 <atominfo>
  <atoms>      36 </atoms>
  <types>       3 </types>
  <array name="atoms" >
   <dimension dim="1">ion</dimension>
   <field type="string">element</field>
   <field type="int">atomtype</field>
   <set>
    <rc><c>Fe</c><c>   1</c></rc>
    <rc><c>Fe</c><c>   1</c></rc>
    <rc><c>Fe</c><c>   1</c></rc>
    <rc><c>Fe</c><c>   1</c></rc>
    <rc><c>Fe</c><c>   1</c></rc>
    <rc><c>Fe</c><c>   1</c></rc>
    <rc><c>Fe</c><c>   1</c></rc>
    <rc><c>Fe</c><c>   1</c></rc>
    <rc><c>Fe</c><c>   1</c></rc>
    <rc><c>Fe</c><c>   1</c></rc>
    <rc><c>Fe</c><c>   1</c></rc>
    <rc><c>Fe</c><c>   1</c></rc>
    <rc><c>O </c><c>   2</c></rc>
    <rc><c>O </c><c>   2</c></rc>
    <rc><c>F </c><c>   3</c></rc>
    <rc><c>F </c><c>   3</c></rc>
    <rc><c>F </c><c>   3</c></rc>
    <rc><c>F </c><c>   3</c></rc>
    <rc><c>F </c><c>   3</c></rc>
    <rc><c>F </c><c>   3</c></rc>
    <rc><c>F </c><c>   3</c></rc>
    <rc><c>F </c><c>   3</c></rc>
    <rc><c>F </c><c>   3</c></rc>
    <rc><c>F </c><c>   3</c></rc>
    <rc><c>F </c><c>   3</c></rc>
    <rc><c>F </c><c>   3</c></rc>
    <rc><c>F </c><c>   3</c></rc>
    <rc><c>F </c><c>   3</c></rc>
    <rc><c>F </c><c>   3</c></rc>
    <rc><c>F </c><c>   3</c></rc>
    <rc><c>F </c><c>   3</c></rc>
    <rc><c>F </c><c>   3</c></rc>
    <rc><c>F </c><c>   3</c></rc>
    <rc><c>F </c><c>   3</c></rc>
    <rc><c>F </c><c>   3</c></rc>
    <rc><c>F </c><c>   3</c></rc>
   </set>
  </array>
  <array name="atomtypes" >
   <dimension dim="1">type</dimension>
   <field type="int">atomspertype</field>
   <field type="string">element</field>
   <field>mass</field>
   <field>valence</field>
   <field type="string">pseudopotential</field>
   <set>
    <rc><c>  12</c><c>Fe</c><c>     55.84700000</c><c>      8.00000000</c><c>  PAW_PBE Fe 06Sep2000                  </c></rc>
    <rc><c>   2</c><c>O </c><c>     16.00000000</c><c>      6.00000000</c><c>  PAW_PBE O 08Apr2002                   </c></rc>
    <rc><c>  22</c><c>F </c><c>     18.99800000</c><c>      7.00000000</c><c>  PAW_PBE F 08Apr2002                   </c></rc>
   </set>
  </array>
 </atominfo>
 <structure name="initialpos" >
  <crystal>
   <varray name="basis" >
    <v>       3.25262800       0.00000000       0.00000000 </v>
    <v>       0.00000000      20.54938400       0.00000000 </v>
    <v>       0.00000000       0.00000000       6.79221100 </v>
   </varray>
   <i name="volume">    453.98799923 </i>
   <varray name="rec_basis" >
    <v>       0.30744370       0.00000000       0.00000000 </v>
    <v>       0.00000000       0.04866326       0.00000000 </v>
    <v>       0.00000000       0.00000000       0.14722746 </v>
   </varray>
  </crystal>
  <varray name="positions" >
   <v>       0.00000000       0.16671900       0.50139100 </v>
   <v>       0.00000000       0.83328100       0.50139100 </v>
   <v>       0.00000000       0.66671900       0.00139100 </v>
   <v>       0.00000000       0.33328100       0.00422200 </v>
   <v>       0.50000000       0.16602100       0.00000400 </v>
   <v>       0.50000000       0.83397900       0.00000400 </v>
   <v>       0.50000000       0.66602100       0.50000400 </v>
   <v>       0.50000000       0.33397900       0.50000400 </v>
   <v>       0.00000000       0.00000000       0.01216200 </v>
   <v>       0.00000000       0.50000000       0.51216200 </v>
   <v>       0.50000000       0.00000000       0.47240000 </v>
   <v>       0.50000000       0.50000000       0.97240000 </v>
   <v>       0.00000000       0.00000000       0.31436200 </v>
   <v>       0.00000000       0.50000000       0.82072700 </v>
   <v>       0.00000000       0.16816900       0.20329900 </v>
   <v>       0.00000000       0.83183100       0.20329900 </v>
   <v>       0.00000000       0.66816900       0.70329900 </v>
   <v>       0.99082900       0.33183100       0.70329900 </v>
   <v>       0.00000000       0.16838200       0.79934600 </v>
   <v>       0.00000000       0.83161800       0.80520300 </v>
   <v>       0.00000000       0.66838200       0.29934600 </v>
   <v>       0.00984800       0.32978300       0.29934600 </v>
   <v>       0.50000000       0.06837200       0.99633700 </v>
   <v>       0.50000000       0.93162800       0.99633700 </v>
   <v>       0.50000000       0.57428400       0.49633700 </v>
   <v>       0.49598700       0.43162800       0.49633700 </v>
   <v>       0.50000000       0.09818400       0.50567900 </v>
   <v>       0.50000000       0.90181600       0.50567900 </v>
   <v>       0.50000000       0.59818400       0.00567900 </v>
   <v>       0.50000000       0.40181600       0.01110200 </v>
   <v>       0.50000000       0.23406000       0.50152500 </v>
   <v>       0.50000000       0.76594000       0.50152500 </v>
   <v>       0.50000000       0.73406000       0.00152500 </v>
   <v>       0.50000000       0.25801500       0.00391300 </v>
   <v>       0.00000000       0.00000000       0.69474100 </v>
   <v>       0.00000000       0.49210000       0.19474100 </v>
  </varray>
 </structure>
 <calculation>
  <scstep>
   <time name="diag">    0.19    0.31</time>
   <time name="diis">    0.42    0.66</time>
   <time name="orth">    0.31    0.42</time>
   <time name="total">    1.20    1.74</time>
   <energy>
    <i name="alphaZ">    943.57652748 </i>
    <i name="ewald"> -15975.43377667 </i>
    <i name="hartreedc">  -6707.79376891 </i>
    <i name="XCdc">    902.29416685 </i>
    <i name="pawpsdc">  19213.82102697 </i>
    <i name="pawaedc"> -19422.08171028 </i>
    <i name="eentropy">      0.03750709 </i>
    <i name="bandstr">   1810.53265002 </i>
    <i name="atom">  22504.09828397 </i>
    <i name="e_fr_energy">   3269.05090651 </i>
    <i name="e_wo_entrp">   3269.01339942 </i>
    <i name="e_0_energy">   3269.03840414 </i>
   </energy>
  </scstep>
  <scstep>
   <time name="diag">    0.35    0.62</time>
   <time name="diis">    0.49    0.73</time>
   <time name="orth">    0.05    0.10</time>
   <time name="total">    0.90    1.45</time>
   <energy>
    <i name="e_fr_energy">   1022.46887979 </i>
    <i name="e_wo_entrp">   1022.41610670 </i>
    <i name="e_0_energy">   1022.45128876 </i>
   </energy>
  </scstep>
  <scstep>
   <time name="diag">    0.19    0.37</time>
   <time name="diis">    0.56    0.62</time>
   <time name="orth">    0.10    0.17</time>
   <time name="total">    0.86    1.17</time>
   <energy>
    <i name="e_fr_energy">    345.71949711 </i>
    <i name="e_wo_entrp">    345.55255470 </i>
    <i name="e_0_energy">    345.66384964 </i>
   </energy>
  </scstep>
  <scstep>
   <time name="diag">    0.27    0.41</time>
   <time name="diis">    0.44    0.64</time>
   <time name="orth">    0.03    0.06</time>
   <time name="total">    0.74    1.11</time>
   <energy>
    <i name="e_fr_energy">     66.43025160 </i>
    <i name="e_wo_entrp">     66.29691930 </i>
    <i name="e_0_energy">     66.38580750 </i>
   </energy>
  </scstep>
  <scstep>
   <time name="diag">    0.23    0.33</time>
   <time name="diis">    0.46    0.61</time>
   <time name="orth">    0.04    0.06</time>
   <time name="total">    0.74    1.00</time>
   <energy>
    <i name="e_fr_energy">    -91.73459844 </i>
    <i name="e_wo_entrp">    -91.86183307 </i>
    <i name="e_0_energy">    -91.77700999 </i>
   </energy>
  </scstep>
  <scstep>
   <time name="diag">    0.19    0.30</time>
   <time name="diis">    0.39    0.61</time>
   <time name="orth">    0.12    0.17</time>
   <time name="total">    0.71    1.08</time>
   <energy>
    <i name="e_fr_energy">   -161.74913397 </i>
    <i name="e_wo_entrp">   -161.88081066 </i>
    <i name="e_0_energy">   -161.79302620 </i>
   </energy>
  </scstep>
  <scstep>
   <time name="diag">    0.33    0.49</time>
   <time name="diis">    0.44    0.68</time>
   <time name="orth">    0.06    0.11</time>
   <time name="total">    0.83    1.28</time>
   <energy>
    <i name="e_fr_energy">   -195.83528180 </i>
    <i name="e_wo_entrp">   -196.02315760 </i>
    <i name="e_0_energy">   -195.89790707 </i>
   </energy>
  </scstep>
  <scstep>
   <time name="diag">    0.28    0.35</time>
   <time name="diis">    0.40    0.56</time>
   <time name="orth">    0.09    0.10</time>
   <time name="total">    0.77    1.01</time>
   <energy>
    <i name="e_fr_energy">   -208.80827929 </i>
    <i name="e_wo_entrp">   -209.04243122 </i>
    <i name="e_0_energy">   -208.88632994 </i>
   </energy>
  </scstep>
  <scstep>
   <time name="diag">    0.26    0.41</time>
   <time name="diis">    1.66    2.23</time>
   <time name="orth">    0.19    0.26</time>
   <time name="total">    2.11    2.90</time>
   <energy>
    <i name="e_fr_energy">   -221.69224052 </i>
    <i name="e_wo_entrp">   -221.93233605 </i>
    <i name="e_0_energy">   -221.77227236 </i>
   </energy>
  </scstep>
  <scstep>
   <time name="diag">    0.17    0.31</time>
   <time name="diis">    1.43    1.96</time>
   <time name="orth">    0.04    0.06</time>
   <time name="total">    1.64    2.33</time>
   <energy>
    <i name="e_fr_energy">   -222.05400431 </i>
    <i name="e_wo_entrp">   -222.25950261 </i>
    <i name="e_0_energy">   -222.12250374 </i>
   </energy>
  </scstep>
  <scstep>
   <time name="diag">    0.25    0.31</time>
   <time name="diis">    1.20    1.82</time>
   <time name="orth">    0.07    0.08</time>
   <time name="total">    1.52    2.22</time>
   <energy>
    <i name="e_fr_energy">   -222.36467377 </i>
    <i name="e_wo_entrp">   -222.53598755 </i>
    <i name="e_0_energy">   -222.42177837 </i>
   </energy>
  </scstep>
  <scstep>
   <time name="diag">    0.16    0.28</time>
   <time name="diis">    1.28    1.77</time>
   <time name="orth">    0.16    0.25</time>
   <time name="total">    1.69    2.44</time>
   <energy>
    <i name="e_fr_energy">   -222.53553761 </i>
    <i name="e_wo_entrp">   -222.68576529 </i>
    <i name="e_0_energy">   -222.58561351 </i>
   </energy>
  </scstep>
  <scstep>
   <time name="diag">    0.28    0.41</time>
   <time name="diis">    0.91    1.32</time>
   <time name="orth">    0.07    0.10</time>
   <time name="total">    1.62    2.30</time>
   <energy>
    <i name="e_fr_energy">   -213.51951663 </i>
    <i name="e_wo_entrp">   -213.35601348 </i>
    <i name="e_0_energy">   -213.46501558 </i>
   </energy>
  </scstep>
  <scstep>
   <time name="diag">    0.38    0.53</time>
   <time name="diis">    0.85    1.46</time>
   <time name="orth">    0.09    0.15</time>
   <time name="total">    1.89    2.75</time>
   <energy>
    <i name="e_fr_energy">   -289.57148341 </i>
    <i name="e_wo_entrp">   -289.50086896 </i>
    <i name="e_0_energy">   -289.54794526 </i>
   </energy>
  </scstep>
  <scstep>
   <time name="diag">    0.25    0.48</time>
   <time name="diis">    0.98    1.31</time>
   <time name="orth">    0.11    0.12</time>
   <time name="total">    1.69    2.37</time>
   <energy>
    <i name="e_fr_energy">   -248.90161873 </i>
    <i name="e_wo_entrp">   -248.90528587 </i>
    <i name="e_0_energy">   -248.90284111 </i>
   </energy>
  </scstep>
  <scstep>
   <time name="diag">    0.43    0.60</time>
   <time name="diis">    0.84    1.33</time>
   <time name="orth">    0.07    0.13</time>
   <time name="total">    1.61    2.48</time>
   <energy>
    <i name="e_fr_energy">   -223.50097806 </i>
    <i name="e_wo_entrp">   -223.58001076 </i>
    <i name="e_0_energy">   -223.52732229 </i>
   </energy>
  </scstep>
  <scstep>
   <time name="diag">    0.26    0.36</time>
   <time name="diis">    0.84    1.44</time>
   <time name="orth">    0.04    0.07</time>
   <time name="total">    1.32    2.18</time>
   <energy>
    <i name="e_fr_energy">   -221.51931193 </i>
    <i name="e_wo_entrp">   -221.64521315 </i>
    <i name="e_0_energy">   -221.56127900 </i>
   </energy>
  </scstep>
  <scstep>
   <time name="diag">    0.22    0.31</time>
   <time name="diis">    0.81    1.32</time>
   <time name="orth">    0.05    0.07</time>
   <time name="total">    1.26    1.97</time>
   <energy>
    <i name="e_fr_energy">   -232.44170757 </i>
    <i name="e_wo_entrp">   -232.20307623 </i>
    <i name="e_0_energy">   -232.36216379 </i>
   </energy>
  </scstep>
  <scstep>
   <time name="diag">    0.27    0.53</time>
   <time name="diis">    1.11    1.50</time>
   <time name="orth">    0.09    0.10</time>
   <time name="total">    1.72    2.59</time>
   <energy>
    <i name="e_fr_energy">   -224.02518237 </i>
    <i name="e_wo_entrp">   -223.94673982 </i>
    <i name="e_0_energy">   -223.99903485 </i>
   </energy>
  </scstep>
  <scstep>
   <time name="diag">    0.25    0.38</time>
   <time name="diis">    0.86    1.36</time>
   <time name="orth">    0.08    0.09</time>
   <time name="total">    1.41    2.15</time>
   <energy>
    <i name="e_fr_energy">   -225.16828608 </i>
    <i name="e_wo_entrp">   -225.23512265 </i>
    <i name="e_0_energy">   -225.19056494 </i>
   </energy>
  </scstep>
  <scstep>
   <time name="diag">    0.26    0.34</time>
   <time name="diis">    0.99    1.34</time>
   <time name="orth">    0.09    0.10</time>
   <time name="total">    1.56    2.08</time>
   <energy>
    <i name="e_fr_energy">   -224.05249387 </i>
    <i name="e_wo_entrp">   -224.01532956 </i>
    <i name="e_0_energy">   -224.04010577 </i>
   </energy>
  </scstep>
  <scstep>
   <time name="diag">    0.23    0.34</time>
   <time name="diis">    0.94    1.34</time>
   <time name="orth">    0.11    0.14</time>
   <time name="total">    1.49    2.13</time>
   <energy>
    <i name="e_fr_energy">   -211.52565354 </i>
    <i name="e_wo_entrp">   -211.40350692 </i>
    <i name="e_0_energy">   -211.48493800 </i>
   </energy>
  </scstep>
  <scstep>
   <time name="diag">    0.22    0.33</time>
   <time name="diis">    0.90    1.43</time>
   <time name="orth">    0.04    0.08</time>
   <time name="total">    1.53    2.46</time>
   <energy>
    <i name="e_fr_energy">   -203.29865948 </i>
    <i name="e_wo_entrp">   -203.28211618 </i>
    <i name="e_0_energy">   -203.29314505 </i>
   </energy>
  </scstep>
  <scstep>
   <time name="diag">    0.18    0.34</time>
   <time name="diis">    1.15    1.41</time>
   <time name="orth">    0.04    0.08</time>
   <time name="total">    1.97    2.56</time>
   <energy>
    <i name="e_fr_energy">   -214.68350673 </i>
    <i name="e_wo_entrp">   -214.63124519 </i>
    <i name="e_0_energy">   -214.66608621 </i>
   </energy>
  </scstep>
  <scstep>
   <time name="diag">    0.26    0.32</time>
   <time name="diis">    0.88    1.46</time>
   <time name="orth">    0.07    0.07</time>
   <time name="total">    1.78    2.63</time>
   <energy>
    <i name="e_fr_energy">   -204.65248448 </i>
    <i name="e_wo_entrp">   -204.57760459 </i>
    <i name="e_0_energy">   -204.62752452 </i>
   </energy>
  </scstep>
  <scstep>
   <time name="diag">    0.20    0.31</time>
   <time name="diis">    0.90    1.29</time>
   <time name="orth">    0.07    0.13</time>
   <time name="total">    1.54    2.19</time>
   <energy>
    <i name="e_fr_energy">   -195.32067099 </i>
    <i name="e_wo_entrp">   -195.32109412 </i>
    <i name="e_0_energy">   -195.32081203 </i>
   </energy>
  </scstep>
  <scstep>
   <time name="diag">    0.26    0.45</time>
   <time name="diis">    0.99    1.39</time>
   <time name="orth">    0.23    0.31</time>
   <time name="total">    1.87    2.63</time>
   <energy>
    <i name="e_fr_energy">   -193.18453563 </i>
    <i name="e_wo_entrp">   -193.07548497 </i>
    <i name="e_0_energy">   -193.14818541 </i>
   </energy>
  </scstep>
  <scstep>
   <time name="diag">    0.30    0.49</time>
   <time name="diis">    0.89    1.41</time>
   <time name="orth">    0.20    0.23</time>
   <time name="total">    1.68    2.58</time>
   <energy>
    <i name="e_fr_energy">   -191.55983505 </i>
    <i name="e_wo_entrp">   -191.52660187 </i>
    <i name="e_0_energy">   -191.54875732 </i>
   </energy>
  </scstep>
  <scstep>
   <time name="diag">    0.42    0.43</time>
   <time name="diis">    1.13    1.40</time>
   <time name="orth">    0.06    0.08</time>
   <time name="total">    1.83    2.19</time>
   <energy>
    <i name="e_fr_energy">   -190.31889351 </i>
    <i name="e_wo_entrp">   -190.43226438 </i>
    <i name="e_0_energy">   -190.35668380 </i>
   </energy>
  </scstep>
  <scstep>
   <time name="diag">    0.29    0.36</time>
   <time name="diis">    0.96    1.32</time>
   <time name="orth">    0.10    0.10</time>
   <time name="total">    1.54    2.10</time>
   <energy>
    <i name="e_fr_energy">   -189.55166292 </i>
    <i name="e_wo_entrp">   -189.69874699 </i>
    <i name="e_0_energy">   -189.60069094 </i>
   </energy>
  </scstep>
  <scstep>
   <time name="diag">    0.18    0.33</time>
   <time name="diis">    0.92    1.32</time>
   <time name="orth">    0.06    0.11</time>
   <time name="total">    1.44    2.20</time>
   <energy>
    <i name="e_fr_energy">   -189.70362562 </i>
    <i name="e_wo_entrp">   -189.72782849 </i>
    <i name="e_0_energy">   -189.71169325 </i>
   </energy>
  </scstep>
  <scstep>
   <time name="diag">    0.24    0.35</time>
   <time name="diis">    0.81    1.30</time>
   <time name="orth">    0.05    0.05</time>
   <time name="total">    1.33    1.95</time>
   <energy>
    <i name="e_fr_energy">   -189.61755885 </i>
    <i name="e_wo_entrp">   -189.76159401 </i>
    <i name="e_0_energy">   -189.66557057 </i>
   </energy>
  </scstep>
  <scstep>
   <time name="diag">    0.26    0.42</time>
   <time name="diis">    0.95    1.41</time>
   <time name="orth">    0.08    0.08</time>
   <time name="total">    1.69    2.48</time>
   <energy>
    <i name="e_fr_energy">   -189.40670972 </i>
    <i name="e_wo_entrp">   -189.48116968 </i>
    <i name="e_0_energy">   -189.43152971 </i>
   </energy>
  </scstep>
  <scstep>
   <time name="diag">    0.26    0.32</time>
   <time name="diis">    0.90    1.43</time>
   <time name="orth">    0.06    0.08</time>
   <time name="total">    1.56    2.32</time>
   <energy>
    <i name="e_fr_energy">   -189.49411991 </i>
    <i name="e_wo_entrp">   -189.44811693 </i>
    <i name="e_0_energy">   -189.47878558 </i>
   </energy>
  </scstep>
  <scstep>
   <time name="diag">    0.17    0.23</time>
   <time name="diis">    1.01    1.45</time>
   <time name="orth">    0.05    0.07</time>
   <time name="total">    1.50    2.15</time>
   <energy>
    <i name="e_fr_energy">   -189.20953438 </i>
    <i name="e_wo_entrp">   -189.21049095 </i>
    <i name="e_0_energy">   -189.20985323 </i>
   </energy>
  </scstep>
  <scstep>
   <time name="diag">    0.22    0.39</time>
   <time name="diis">    0.92    1.28</time>
   <time name="orth">    0.04    0.04</time>
   <time name="total">    1.45    2.06</time>
   <energy>
    <i name="e_fr_energy">   -189.41148073 </i>
    <i name="e_wo_entrp">   -189.34065529 </i>
    <i name="e_0_energy">   -189.38787225 </i>
   </energy>
  </scstep>
  <scstep>
   <time name="diag">    0.19    0.24</time>
   <time name="diis">    1.04    1.36</time>
   <time name="orth">    0.13    0.22</time>
   <time name="total">    1.59    2.15</time>
   <energy>
    <i name="e_fr_energy">   -189.26167052 </i>
    <i name="e_wo_entrp">   -189.30734221 </i>
    <i name="e_0_energy">   -189.27689442 </i>
   </energy>
  </scstep>
  <scstep>
   <time name="diag">    0.16    0.23</time>
   <time name="diis">    0.87    1.24</time>
   <time name="orth">    0.10    0.12</time>
   <time name="total">    1.37    1.96</time>
   <energy>
    <i name="e_fr_energy">   -189.06137456 </i>
    <i name="e_wo_entrp">   -189.05265779 </i>
    <i name="e_0_energy">   -189.05846897 </i>
   </energy>
  </scstep>
  <scstep>
   <time name="diag">    0.21    0.30</time>
   <time name="diis">    0.93    1.38</time>
   <time name="orth">    0.04    0.06</time>
   <time name="total">    1.34    1.96</time>
   <energy>
    <i name="e_fr_energy">   -189.19046763 </i>
    <i name="e_wo_entrp">   -189.16798024 </i>
    <i name="e_0_energy">   -189.18297183 </i>
   </energy>
  </scstep>
  <scstep>
   <time name="diag">    0.28    0.32</time>
   <time name="diis">    1.13    1.35</time>
   <time name="orth">    0.05    0.09</time>
   <time name="total">    1.94    2.66</time>
   <energy>
    <i name="e_fr_energy">   -189.07642927 </i>
    <i name="e_wo_entrp">   -189.06433586 </i>
    <i name="e_0_energy">   -189.07239813 </i>
   </energy>
  </scstep>
  <scstep>
   <time name="diag">    0.23    0.30</time>
   <time name="diis">    0.77    1.15</time>
   <time name="orth">    0.13    0.16</time>
   <time name="total">    1.39    2.00</time>
   <energy>
    <i name="e_fr_energy">   -189.02693701 </i>
    <i name="e_wo_entrp">   -189.02251928 </i>
    <i name="e_0_energy">   -189.02546444 </i>
   </energy>
  </scstep>
  <scstep>
   <time name="diag">    0.17    0.24</time>
   <time name="diis">    0.78    1.34</time>
   <time name="orth">    0.19    0.33</time>
   <time name="total">    1.41    2.40</time>
   <energy>
    <i name="e_fr_energy">   -189.01404684 </i>
    <i name="e_wo_entrp">   -189.00159299 </i>
    <i name="e_0_energy">   -189.00989556 </i>
   </energy>
  </scstep>
  <scstep>
   <time name="diag">    0.15    0.22</time>
   <time name="diis">    0.97    1.42</time>
   <time name="orth">    0.04    0.08</time>
   <time name="total">    1.36    1.99</time>
   <energy>
    <i name="e_fr_energy">   -188.98199861 </i>
    <i name="e_wo_entrp">   -188.98399065 </i>
    <i name="e_0_energy">   -188.98266262 </i>
   </energy>
  </scstep>
  <scstep>
   <time name="diag">    0.13    0.18</time>
   <time name="diis">    0.81    1.08</time>
   <time name="orth">    0.39    0.52</time>
   <time name="total">    1.56    2.09</time>
   <energy>
    <i name="e_fr_energy">   -188.96521252 </i>
    <i name="e_wo_entrp">   -188.96598009 </i>
    <i name="e_0_energy">   -188.96546837 </i>
   </energy>
  </scstep>
  <scstep>
   <time name="diag">    0.21    0.32</time>
   <time name="diis">    0.80    1.15</time>
   <time name="orth">    0.06    0.08</time>
   <time name="total">    1.47    2.22</time>
   <energy>
    <i name="e_fr_energy">   -188.94539935 </i>
    <i name="e_wo_entrp">   -188.94939090 </i>
    <i name="e_0_energy">   -188.94672986 </i>
   </energy>
  </scstep>
  <scstep>
   <time name="diag">    0.14    0.14</time>
   <time name="diis">    0.80    1.13</time>
   <time name="orth">    0.14    0.27</time>
   <time name="total">    1.35    1.94</time>
   <energy>
    <i name="e_fr_energy">   -188.94126455 </i>
    <i name="e_wo_entrp">   -188.94825797 </i>
    <i name="e_0_energy">   -188.94359569 </i>
   </energy>
  </scstep>
  <scstep>
   <time name="diag">    0.20    0.28</time>
   <time name="diis">    0.57    0.76</time>
   <time name="orth">    0.13    0.20</time>
   <time name="total">    1.14    1.56</time>
   <energy>
    <i name="e_fr_energy">   -188.93808889 </i>
    <i name="e_wo_entrp">   -188.94507953 </i>
    <i name="e_0_energy">   -188.94041910 </i>
   </energy>
  </scstep>
  <scstep>
   <time name="diag">    0.20    0.28</time>
   <time name="diis">    0.84    1.23</time>
   <time name="orth">    0.04    0.07</time>
   <time name="total">    1.25    1.86</time>
   <energy>
    <i name="e_fr_energy">   -188.92385065 </i>
    <i name="e_wo_entrp">   -188.94425871 </i>
    <i name="e_0_energy">   -188.93065333 </i>
   </energy>
  </scstep>
  <scstep>
   <time name="diag">    0.12    0.24</time>
   <time name="diis">    0.61    0.92</time>
   <time name="orth">    0.09    0.14</time>
   <time name="total">    1.05    1.63</time>
   <energy>
    <i name="e_fr_energy">   -188.92034508 </i>
    <i name="e_wo_entrp">   -188.94441756 </i>
    <i name="e_0_energy">   -188.92836924 </i>
   </energy>
  </scstep>
  <scstep>
   <time name="diag">    0.19    0.27</time>
   <time name="diis">    0.76    1.08</time>
   <time name="orth">    0.03    0.03</time>
   <time name="total">    1.19    1.62</time>
   <energy>
    <i name="e_fr_energy">   -188.91765782 </i>
    <i name="e_wo_entrp">   -188.94683388 </i>
    <i name="e_0_energy">   -188.92738317 </i>
   </energy>
  </scstep>
  <scstep>
   <time name="diag">    0.10    0.18</time>
   <time name="diis">    0.71    1.01</time>
   <time name="orth">    0.06    0.06</time>
   <time name="total">    1.19    1.71</time>
   <energy>
    <i name="e_fr_energy">   -188.91528420 </i>
    <i name="e_wo_entrp">   -188.95149992 </i>
    <i name="e_0_energy">   -188.92735611 </i>
   </energy>
  </scstep>
  <scstep>
   <time name="diag">    0.15    0.22</time>
   <time name="diis">    0.80    0.91</time>
   <time name="orth">    0.07    0.08</time>
   <time name="total">    1.27    1.46</time>
   <energy>
    <i name="e_fr_energy">   -188.91345622 </i>
    <i name="e_wo_entrp">   -188.95395923 </i>
    <i name="e_0_energy">   -188.92695723 </i>
   </energy>
  </scstep>
  <scstep>
   <time name="diag">    0.16    0.31</time>
   <time name="diis">    0.52    0.70</time>
   <time name="orth">    0.07    0.07</time>
   <time name="total">    1.04    1.46</time>
   <energy>
    <i name="e_fr_energy">   -188.91385228 </i>
    <i name="e_wo_entrp">   -188.95649176 </i>
    <i name="e_0_energy">   -188.92806544 </i>
   </energy>
  </scstep>
  <scstep>
   <time name="diag">    0.36    0.59</time>
   <time name="diis">    0.57    0.72</time>
   <time name="orth">    0.04    0.08</time>
   <time name="total">    1.12    1.63</time>
   <energy>
    <i name="e_fr_energy">   -188.91353197 </i>
    <i name="e_wo_entrp">   -188.95894127 </i>
    <i name="e_0_energy">   -188.92866840 </i>
   </energy>
  </scstep>
  <scstep>
   <time name="diag">    0.20    0.33</time>
   <time name="diis">    0.46    0.59</time>
   <time name="orth">    0.08    0.11</time>
   <time name="total">    0.94    1.32</time>
   <energy>
    <i name="e_fr_energy">   -188.91397651 </i>
    <i name="e_wo_entrp">   -188.96017301 </i>
    <i name="e_0_energy">   -188.92937535 </i>
   </energy>
  </scstep>
  <scstep>
   <time name="diag">    0.17    0.21</time>
   <time name="diis">    0.49    0.73</time>
   <time name="orth">    0.07    0.08</time>
   <time name="total">    0.83    1.21</time>
   <energy>
    <i name="alphaZ">    943.57652748 </i>
    <i name="ewald"> -15975.43377667 </i>
    <i name="hartreedc">  -6867.60371411 </i>
    <i name="XCdc">    918.65792924 </i>
    <i name="pawpsdc">  22457.89141105 </i>
    <i name="pawaedc"> -22668.49834361 </i>
    <i name="eentropy">      0.04588790 </i>
    <i name="bandstr">  -1501.64811691 </i>
    <i name="atom">  22504.09828397 </i>
    <i name="e_fr_energy">   -188.91391166 </i>
    <i name="e_wo_entrp">   -188.95979956 </i>
    <i name="e_0_energy">   -188.92920763 </i>
   </energy>
  </scstep>
  <structure>
   <crystal>
    <varray name="basis" >
     <v>       3.25262800       0.00000000       0.00000000 </v>
     <v>       0.00000000      20.54938400       0.00000000 </v>
     <v>       0.00000000       0.00000000       6.79221100 </v>
    </varray>
    <i name="volume">    453.98799923 </i>
    <varray name="rec_basis" >
     <v>       0.30744370       0.00000000       0.00000000 </v>
     <v>       0.00000000       0.04866326       0.00000000 </v>
     <v>       0.00000000       0.00000000       0.14722746 </v>
    </varray>
   </crystal>
   <varray name="positions" >
    <v>       0.00000000       0.16671900       0.50139100 </v>
    <v>       0.00000000       0.83328100       0.50139100 </v>
    <v>       0.00000000       0.66671900       0.00139100 </v>
    <v>       0.00000000       0.33328100       0.00422200 </v>
    <v>       0.50000000       0.16602100       0.00000400 </v>
    <v>       0.50000000       0.83397900       0.00000400 </v>
    <v>       0.50000000       0.66602100       0.50000400 </v>
    <v>       0.50000000       0.33397900       0.50000400 </v>
    <v>       0.00000000       0.00000000       0.01216200 </v>
    <v>       0.00000000       0.50000000       0.51216200 </v>
    <v>       0.50000000       0.00000000       0.47240000 </v>
    <v>       0.50000000       0.50000000       0.97240000 </v>
    <v>       0.00000000       0.00000000       0.31436200 </v>
    <v>       0.00000000       0.50000000       0.82072700 </v>
    <v>       0.00000000       0.16816900       0.20329900 </v>
    <v>       0.00000000       0.83183100       0.20329900 </v>
    <v>       0.00000000       0.66816900       0.70329900 </v>
    <v>       0.99082900       0.33183100       0.70329900 </v>
    <v>       0.00000000       0.16838200       0.79934600 </v>
    <v>       0.00000000       0.83161800       0.80520300 </v>
    <v>       0.00000000       0.66838200       0.29934600 </v>
    <v>       0.00984800       0.32978300       0.29934600 </v>
    <v>       0.50000000       0.06837200       0.99633700 </v>
    <v>       0.50000000       0.93162800       0.99633700 </v>
    <v>       0.50000000       0.57428400       0.49633700 </v>
    <v>       0.49598700       0.43162800       0.49633700 </v>
    <v>       0.50000000       0.09818400       0.50567900 </v>
    <v>       0.50000000       0.90181600       0.50567900 </v>
    <v>       0.50000000       0.59818400       0.00567900 </v>
    <v>       0.50000000       0.40181600       0.01110200 </v>
    <v>       0.50000000       0.23406000       0.50152500 </v>
    <v>       0.50000000       0.76594000       0.50152500 </v>
    <v>       0.50000000       0.73406000       0.00152500 </v>
    <v>       0.50000000       0.25801500       0.00391300 </v>
    <v>       0.00000000       0.00000000       0.69474100 </v>
    <v>       0.00000000       0.49210000       0.19474100 </v>
   </varray>
  </structure>
  <varray name="forces" >
   <v>      -0.00286945      -0.08686253       0.06202969 </v>
   <v>       0.00009184       0.11935859       0.12273600 </v>
   <v>      -0.00032380      -0.04897294       0.04630735 </v>
   <v>       0.00998247      -0.32096805      -0.00552516 </v>
   <v>       0.00029922      -0.27917124       0.09750854 </v>
   <v>      -0.00004369      -0.28723981       0.26588658 </v>
   <v>      -0.00303582       0.87151055       0.09550211 </v>
   <v>      -0.01854110      -0.38331141       0.07102984 </v>
   <v>       0.00011799      -0.02445062       0.99701104 </v>
   <v>      -0.03467056      -0.09928693       0.98160160 </v>
   <v>      -0.00007026       0.01224395       0.12151868 </v>
   <v>      -0.00025225      -0.63302883       0.58032878 </v>
   <v>      -0.00018383      -0.00404887      -1.10670539 </v>
   <v>      -0.00070666       0.34125886      -1.64283986 </v>
   <v>      -0.00035430      -0.24490725      -0.15081796 </v>
   <v>      -0.00007254       0.19095730      -0.24989076 </v>
   <v>       0.00010410      -0.15988071      -0.18814687 </v>
   <v>       0.08020580       0.27570181      -0.10637056 </v>
   <v>       0.00019678      -0.23013887       0.08743139 </v>
   <v>      -0.00001197       0.18350664      -0.08886183 </v>
   <v>      -0.00009486      -0.16370180       0.12246951 </v>
   <v>      -0.11757087       0.30419583       0.15693117 </v>
   <v>      -0.00019501      -0.55505621       0.19885631 </v>
   <v>      -0.00017121       0.54831497       0.20861232 </v>
   <v>       0.01467497      -1.37288483       0.14393111 </v>
   <v>       0.06248401       0.46034921       0.25191301 </v>
   <v>       0.00093030       0.83446323      -0.18730308 </v>
   <v>      -0.00033834      -0.87853825      -0.17618897 </v>
   <v>      -0.00030472       0.82676121      -0.14233925 </v>
   <v>       0.00195637      -0.76868713      -0.31723048 </v>
   <v>       0.01030052      -0.39343145      -0.01287267 </v>
   <v>       0.00089848       0.43934076      -0.00792368 </v>
   <v>      -0.00003084      -0.40406264      -0.03442869 </v>
   <v>       0.00192347       1.37145491      -0.05803175 </v>
   <v>      -0.00004094      -0.00223113      -0.14822969 </v>
   <v>      -0.00428330       0.56144369       0.01210161 </v>
  </varray>
  <varray name="stress" >
   <v>    -244.29757245       0.10384180      -0.58262021 </v>
   <v>       0.10384153    -249.47859078       0.19854869 </v>
   <v>      -0.58261845       0.19854986    -282.78316342 </v>
  </varray>
  <energy>
   <i name="e_fr_energy">   -188.91391166 </i>
   <i name="e_wo_entrp">   -188.92920763 </i>
   <i name="e_0_energy">      0.04588790 </i>
  </energy>
  <time name="totalsc">   80.62  115.93</time>
  <eigenvalues>
   <array>
    <dimension dim="1">band</dimension>
    <dimension dim="2">kpoint</dimension>
    <dimension dim="3">spin</dimension>
    <field>eigene</field>
    <field>occ</field>
    <set>
     <set comment="spin 1">
      <set comment="kpoint 1">
       <r>  -22.7502    1.0000 </r>
       <r>  -22.7111    1.0000 </r>
       <r>  -22.6020    1.0000 </r>
       <r>  -22.5598    1.0000 </r>
       <r>  -22.3945    1.0000 </r>
       <r>  -22.3472    1.0000 </r>
       <r>  -22.3240    1.0000 </r>
       <r>  -22.2994    1.0000 </r>
       <r>  -22.2785    1.0000 </r>
       <r>  -22.2691    1.0000 </r>
       <r>  -22.2535    1.0000 </r>
       <r>  -22.2366    1.0000 </r>
       <r>  -22.2316    1.0000 </r>
       <r>  -22.2033    1.0000 </r>
       <r>  -22.1750    1.0000 </r>
       <r>  -22.1685    1.0000 </r>
       <r>  -22.1615    1.0000 </r>
       <r>  -22.1403    1.0000 </r>
       <r>  -22.1346    1.0000 </r>
       <r>  -22.1058    1.0000 </r>
       <r>  -20.9571    1.0000 </r>
       <r>  -20.8940    1.0000 </r>
       <r>  -16.6283    1.0000 </r>
       <r>  -16.5560    1.0000 </r>
       <r>   -6.1866    1.0000 </r>
       <r>   -6.0898    1.0000 </r>
       <r>   -5.9137    1.0000 </r>
       <r>   -5.8406    1.0000 </r>
       <r>   -5.6762    1.0000 </r>
       <r>   -5.4825    1.0000 </r>
       <r>   -5.4053    1.0000 </r>
       <r>   -5.3477    1.0000 </r>
       <r>   -5.2514    1.0000 </r>
       <r>   -5.0710    1.0000 </r>
       <r>   -4.6318    1.0000 </r>
       <r>   -4.6128    1.0000 </r>
       <r>   -4.5664    1.0000 </r>
       <r>   -4.5208    1.0000 </r>
       <r>   -4.4948    1.0000 </r>
       <r>   -4.4112    1.0000 </r>
       <r>   -4.3600    1.0000 </r>
       <r>   -4.3428    1.0000 </r>
       <r>   -4.3311    1.0000 </r>
       <r>   -4.3245    1.0000 </r>
       <r>   -4.3011    1.0000 </r>
       <r>   -4.2781    1.0000 </r>
       <r>   -4.2735    1.0000 </r>
       <r>   -4.2366    1.0000 </r>
       <r>   -4.2150    1.0000 </r>
       <r>   -4.2060    1.0000 </r>
       <r>   -4.1802    1.0000 </r>
       <r>   -4.1787    1.0000 </r>
       <r>   -4.1524    1.0000 </r>
       <r>   -4.1506    1.0000 </r>
       <r>   -4.0981    1.0000 </r>
       <r>   -4.0673    1.0000 </r>
       <r>   -4.0610    1.0000 </r>
       <r>   -4.0512    1.0000 </r>
       <r>   -4.0257    1.0000 </r>
       <r>   -3.9979    1.0000 </r>
       <r>   -3.9523    1.0000 </r>
       <r>   -3.8554    1.0000 </r>
       <r>   -3.8428    1.0000 </r>
       <r>   -3.6472    1.0000 </r>
       <r>   -3.6073    1.0000 </r>
       <r>   -3.5780    1.0000 </r>
       <r>   -3.5729    1.0000 </r>
       <r>   -3.5351    1.0000 </r>
       <r>   -3.5024    1.0000 </r>
       <r>   -3.4990    1.0000 </r>
       <r>   -3.4524    1.0000 </r>
       <r>   -3.3947    1.0000 </r>
       <r>   -3.2979    1.0000 </r>
       <r>   -3.2553    1.0000 </r>
       <r>   -3.2429    1.0000 </r>
       <r>   -3.1955    1.0000 </r>
       <r>   -3.1916    1.0000 </r>
       <r>   -3.1707    1.0000 </r>
       <r>   -3.1636    1.0000 </r>
       <r>   -3.1121    1.0000 </r>
       <r>   -3.0787    1.0000 </r>
       <r>   -3.0445    1.0000 </r>
       <r>   -3.0160    1.0000 </r>
       <r>   -2.9569    1.0000 </r>
       <r>   -2.8668    1.0000 </r>
       <r>   -2.7934    1.0000 </r>
       <r>   -2.6411    1.0000 </r>
       <r>   -2.5690    1.0000 </r>
       <r>   -2.0440    1.0000 </r>
       <r>   -2.0372    1.0000 </r>
       <r>   -2.0079    1.0000 </r>
       <r>   -1.9691    1.0000 </r>
       <r>   -1.8206    1.0000 </r>
       <r>   -1.8056    1.0000 </r>
       <r>   -1.3230    1.0000 </r>
       <r>   -1.2855    1.0000 </r>
       <r>    0.8125    1.0000 </r>
       <r>    0.8645    1.0000 </r>
       <r>    0.8933    1.0000 </r>
       <r>    0.9284    1.0000 </r>
       <r>    0.9407    1.0000 </r>
       <r>    0.9751    1.0000 </r>
       <r>    0.9804    1.0000 </r>
       <r>    1.0109    1.0000 </r>
       <r>    1.0225    1.0000 </r>
       <r>    1.0281    1.0000 </r>
       <r>    1.0300    1.0000 </r>
       <r>    1.0786    1.0000 </r>
       <r>    1.1495    1.0000 </r>
       <r>    1.1549    1.0000 </r>
       <r>    1.2004    1.0000 </r>
       <r>    1.2199    1.0000 </r>
       <r>    1.2340    1.0001 </r>
       <r>    1.2428    1.0001 </r>
       <r>    1.2430    1.0001 </r>
       <r>    1.2657    1.0001 </r>
       <r>    1.2907    1.0003 </r>
       <r>    1.3123    1.0005 </r>
       <r>    1.3318    1.0008 </r>
       <r>    1.3386    1.0009 </r>
       <r>    1.3675    1.0017 </r>
       <r>    1.3863    1.0025 </r>
       <r>    1.5100    1.0187 </r>
       <r>    1.5268    1.0225 </r>
       <r>    1.5539    1.0287 </r>
       <r>    1.6209    1.0343 </r>
       <r>    1.6707    1.0101 </r>
       <r>    1.6913    0.9874 </r>
       <r>    1.7585    0.8436 </r>
       <r>    1.7862    0.7527 </r>
       <r>    1.8294    0.5837 </r>
       <r>    1.8442    0.5214 </r>
       <r>    1.9050    0.2740 </r>
       <r>    1.9682    0.0823 </r>
       <r>    1.9765    0.0644 </r>
       <r>    2.0432   -0.0217 </r>
       <r>    2.0682   -0.0324 </r>
       <r>    2.1113   -0.0345 </r>
       <r>    2.1170   -0.0338 </r>
       <r>    2.1245   -0.0326 </r>
       <r>    2.1526   -0.0269 </r>
       <r>    2.1868   -0.0191 </r>
       <r>    2.2238   -0.0118 </r>
       <r>    2.2395   -0.0093 </r>
       <r>    2.2578   -0.0069 </r>
       <r>    2.3657   -0.0008 </r>
       <r>    2.3678   -0.0008 </r>
       <r>    2.4117   -0.0003 </r>
       <r>    2.4284   -0.0002 </r>
       <r>    2.4654   -0.0001 </r>
       <r>    2.5769   -0.0000 </r>
       <r>    2.9428   -0.0000 </r>
       <r>    3.0928   -0.0000 </r>
       <r>    3.2278   -0.0000 </r>
       <r>    3.2865   -0.0000 </r>
       <r>    3.3200   -0.0000 </r>
       <r>    4.1262   -0.0000 </r>
       <r>    4.6361   -0.0000 </r>
       <r>    4.9162   -0.0000 </r>
       <r>    6.2467   -0.0000 </r>
      </set>
     </set>
    </set>
   </array>
  </eigenvalues>
  <separator name="orbital magnetization" >
   <v name="MAGDIPOLOUT">      0.00000000      0.00000000      0.00000000</v>
  </separator>
  <dos>
   <i name="efermi">      1.84925352 </i>
   <total>
    <array>
     <dimension dim="1">gridpoints</dimension>
     <dimension dim="2">spin</dimension>
     <field>energy</field>
     <field>total</field>
     <field>integrated</field>
     <set>
      <set comment="spin 1">
       <r>   -24.7502     0.0000     0.0000 </r>
       <r>   -24.6402     0.0000     0.0000 </r>
       <r>   -24.5302     0.0000     0.0000 </r>
       <r>   -24.4203    -0.0000    -0.0000 </r>
       <r>   -24.3103    -0.0000    -0.0000 </r>
       <r>   -24.2003    -0.0000    -0.0000 </r>
       <r>   -24.0903    -0.0000    -0.0000 </r>
       <r>   -23.9803    -0.0000    -0.0000 </r>
       <r>   -23.8703    -0.0000    -0.0000 </r>
       <r>   -23.7603    -0.0000    -0.0000 </r>
       <r>   -23.6503    -0.0000    -0.0000 </r>
       <r>   -23.5403    -0.0000    -0.0000 </r>
       <r>   -23.4303    -0.0002    -0.0000 </r>
       <r>   -23.3204    -0.0050    -0.0006 </r>
       <r>   -23.2104    -0.0669    -0.0079 </r>
       <r>   -23.1004    -0.4281    -0.0550 </r>
       <r>   -22.9904    -0.9863    -0.1635 </r>
       <r>   -22.8804     1.4787    -0.0009 </r>
       <r>   -22.7704    11.2522     1.2368 </r>
       <r>   -22.6604    21.5212     3.6039 </r>
       <r>   -22.5504    21.4056     5.9583 </r>
       <r>   -22.4404    23.6422     8.5587 </r>
       <r>   -22.3305    54.6941    14.5745 </r>
       <r>   -22.2205    96.3913    25.1765 </r>
       <r>   -22.1105    92.6852    35.3709 </r>
       <r>   -22.0005    43.2512    40.1281 </r>
       <r>   -21.8905     4.4497    40.6175 </r>
       <r>   -21.7805    -3.8174    40.1977 </r>
       <r>   -21.6705    -1.5401    40.0283 </r>
       <r>   -21.5605    -0.2401    40.0019 </r>
       <r>   -21.4505    -0.0461    39.9968 </r>
       <r>   -21.3405    -0.2229    39.9723 </r>
       <r>   -21.2306    -0.6972    39.8956 </r>
       <r>   -21.1206     0.4333    39.9433 </r>
       <r>   -21.0106     7.2462    40.7403 </r>
       <r>   -20.9006    15.1057    42.4017 </r>
       <r>   -20.7906    12.2969    43.7543 </r>
       <r>   -20.6806     3.3823    44.1263 </r>
       <r>   -20.5706    -0.5631    44.0644 </r>
       <r>   -20.4606    -0.4805    44.0115 </r>
       <r>   -20.3506    -0.0956    44.0010 </r>
       <r>   -20.2406    -0.0086    44.0000 </r>
       <r>   -20.1307    -0.0004    44.0000 </r>
       <r>   -20.0207    -0.0000    44.0000 </r>
       <r>   -19.9107    -0.0000    44.0000 </r>
       <r>   -19.8007    -0.0000    44.0000 </r>
       <r>   -19.6907    -0.0000    44.0000 </r>
       <r>   -19.5807    -0.0000    44.0000 </r>
       <r>   -19.4707     0.0000    44.0000 </r>
       <r>   -19.3607     0.0000    44.0000 </r>
       <r>   -19.2507     0.0000    44.0000 </r>
       <r>   -19.1407     0.0000    44.0000 </r>
       <r>   -19.0308     0.0000    44.0000 </r>
       <r>   -18.9208     0.0000    44.0000 </r>
       <r>   -18.8108     0.0000    44.0000 </r>
       <r>   -18.7008     0.0000    44.0000 </r>
       <r>   -18.5908     0.0000    44.0000 </r>
       <r>   -18.4808     0.0000    44.0000 </r>
       <r>   -18.3708     0.0000    44.0000 </r>
       <r>   -18.2608    -0.0000    44.0000 </r>
       <r>   -18.1508    -0.0000    44.0000 </r>
       <r>   -18.0409    -0.0000    44.0000 </r>
       <r>   -17.9309    -0.0000    44.0000 </r>
       <r>   -17.8209    -0.0000    44.0000 </r>
       <r>   -17.7109    -0.0000    44.0000 </r>
       <r>   -17.6009    -0.0000    44.0000 </r>
       <r>   -17.4909    -0.0000    44.0000 </r>
       <r>   -17.3809    -0.0000    44.0000 </r>
       <r>   -17.2709    -0.0005    43.9999 </r>
       <r>   -17.1609    -0.0108    43.9988 </r>
       <r>   -17.0509    -0.1113    43.9865 </r>
       <r>   -16.9410    -0.5116    43.9302 </r>
       <r>   -16.8310    -0.4411    43.8817 </r>
       <r>   -16.7210     3.8839    44.3089 </r>
       <r>   -16.6110    12.6427    45.6995 </r>
       <r>   -16.5010    14.7165    47.3181 </r>
       <r>   -16.3910     6.7708    48.0629 </r>
       <r>   -16.2810     0.3311    48.0993 </r>
       <r>   -16.1710    -0.6670    48.0259 </r>
       <r>   -16.0610    -0.2080    48.0030 </r>
       <r>   -15.9510    -0.0260    48.0002 </r>
       <r>   -15.8411    -0.0016    48.0000 </r>
       <r>   -15.7311    -0.0001    48.0000 </r>
       <r>   -15.6211    -0.0000    48.0000 </r>
       <r>   -15.5111    -0.0000    48.0000 </r>
       <r>   -15.4011    -0.0000    48.0000 </r>
       <r>   -15.2911    -0.0000    48.0000 </r>
       <r>   -15.1811     0.0000    48.0000 </r>
       <r>   -15.0711     0.0000    48.0000 </r>
       <r>   -14.9611     0.0000    48.0000 </r>
       <r>   -14.8512     0.0000    48.0000 </r>
       <r>   -14.7412     0.0000    48.0000 </r>
       <r>   -14.6312     0.0000    48.0000 </r>
       <r>   -14.5212     0.0000    48.0000 </r>
       <r>   -14.4112     0.0000    48.0000 </r>
       <r>   -14.3012     0.0000    48.0000 </r>
       <r>   -14.1912     0.0000    48.0000 </r>
       <r>   -14.0812     0.0000    48.0000 </r>
       <r>   -13.9712     0.0000    48.0000 </r>
       <r>   -13.8612     0.0000    48.0000 </r>
       <r>   -13.7513     0.0000    48.0000 </r>
       <r>   -13.6413     0.0000    48.0000 </r>
       <r>   -13.5313     0.0000    48.0000 </r>
       <r>   -13.4213     0.0000    48.0000 </r>
       <r>   -13.3113     0.0000    48.0000 </r>
       <r>   -13.2013     0.0000    48.0000 </r>
       <r>   -13.0913     0.0000    48.0000 </r>
       <r>   -12.9813     0.0000    48.0000 </r>
       <r>   -12.8713     0.0000    48.0000 </r>
       <r>   -12.7613     0.0000    48.0000 </r>
       <r>   -12.6514     0.0000    48.0000 </r>
       <r>   -12.5414     0.0000    48.0000 </r>
       <r>   -12.4314     0.0000    48.0000 </r>
       <r>   -12.3214     0.0000    48.0000 </r>
       <r>   -12.2114     0.0000    48.0000 </r>
       <r>   -12.1014     0.0000    48.0000 </r>
       <r>   -11.9914     0.0000    48.0000 </r>
       <r>   -11.8814     0.0000    48.0000 </r>
       <r>   -11.7714     0.0000    48.0000 </r>
       <r>   -11.6615     0.0000    48.0000 </r>
       <r>   -11.5515     0.0000    48.0000 </r>
       <r>   -11.4415     0.0000    48.0000 </r>
       <r>   -11.3315     0.0000    48.0000 </r>
       <r>   -11.2215     0.0000    48.0000 </r>
       <r>   -11.1115     0.0000    48.0000 </r>
       <r>   -11.0015     0.0000    48.0000 </r>
       <r>   -10.8915     0.0000    48.0000 </r>
       <r>   -10.7815     0.0000    48.0000 </r>
       <r>   -10.6715     0.0000    48.0000 </r>
       <r>   -10.5616     0.0000    48.0000 </r>
       <r>   -10.4516     0.0000    48.0000 </r>
       <r>   -10.3416     0.0000    48.0000 </r>
       <r>   -10.2316     0.0000    48.0000 </r>
       <r>   -10.1216     0.0000    48.0000 </r>
       <r>   -10.0116     0.0000    48.0000 </r>
       <r>    -9.9016     0.0000    48.0000 </r>
       <r>    -9.7916     0.0000    48.0000 </r>
       <r>    -9.6816     0.0000    48.0000 </r>
       <r>    -9.5716     0.0000    48.0000 </r>
       <r>    -9.4617     0.0000    48.0000 </r>
       <r>    -9.3517     0.0000    48.0000 </r>
       <r>    -9.2417     0.0000    48.0000 </r>
       <r>    -9.1317     0.0000    48.0000 </r>
       <r>    -9.0217     0.0000    48.0000 </r>
       <r>    -8.9117     0.0000    48.0000 </r>
       <r>    -8.8017     0.0000    48.0000 </r>
       <r>    -8.6917     0.0000    48.0000 </r>
       <r>    -8.5817     0.0000    48.0000 </r>
       <r>    -8.4718     0.0000    48.0000 </r>
       <r>    -8.3618     0.0000    48.0000 </r>
       <r>    -8.2518     0.0000    48.0000 </r>
       <r>    -8.1418     0.0000    48.0000 </r>
       <r>    -8.0318     0.0000    48.0000 </r>
       <r>    -7.9218     0.0000    48.0000 </r>
       <r>    -7.8118    -0.0000    48.0000 </r>
       <r>    -7.7018    -0.0000    48.0000 </r>
       <r>    -7.5918    -0.0000    48.0000 </r>
       <r>    -7.4818    -0.0000    48.0000 </r>
       <r>    -7.3719    -0.0000    48.0000 </r>
       <r>    -7.2619    -0.0000    48.0000 </r>
       <r>    -7.1519    -0.0000    48.0000 </r>
       <r>    -7.0419    -0.0000    48.0000 </r>
       <r>    -6.9319    -0.0000    48.0000 </r>
       <r>    -6.8219    -0.0006    47.9999 </r>
       <r>    -6.7119    -0.0120    47.9986 </r>
       <r>    -6.6019    -0.1161    47.9858 </r>
       <r>    -6.4919    -0.4961    47.9313 </r>
       <r>    -6.3819    -0.3683    47.8908 </r>
       <r>    -6.2720     3.5394    48.2801 </r>
       <r>    -6.1620    11.2602    49.5186 </r>
       <r>    -6.0520    15.4411    51.2169 </r>
       <r>    -5.9420    15.8262    52.9576 </r>
       <r>    -5.8320    16.6574    54.7898 </r>
       <r>    -5.7220    14.4803    56.3825 </r>
       <r>    -5.6120    11.1239    57.6060 </r>
       <r>    -5.5020    13.8733    59.1319 </r>
       <r>    -5.3920    21.8472    61.5349 </r>
       <r>    -5.2821    23.6053    64.1312 </r>
       <r>    -5.1721    17.0467    66.0062 </r>
       <r>    -5.0621    10.8642    67.2011 </r>
       <r>    -4.9521     5.4004    67.7951 </r>
       <r>    -4.8421    -0.0324    67.7915 </r>
       <r>    -4.7321     3.6107    68.1887 </r>
       <r>    -4.6221    20.4997    70.4434 </r>
       <r>    -4.5121    38.1242    74.6367 </r>
       <r>    -4.4021    55.1197    80.6993 </r>
       <r>    -4.2921    83.2448    89.8554 </r>
       <r>    -4.1822   104.2937   101.3266 </r>
       <r>    -4.0722    97.5623   112.0574 </r>
       <r>    -3.9622    69.4420   119.6953 </r>
       <r>    -3.8522    37.3794   123.8067 </r>
       <r>    -3.7422    20.5035   126.0619 </r>
       <r>    -3.6322    31.7357   129.5525 </r>
       <r>    -3.5222    53.4983   135.4367 </r>
       <r>    -3.4122    53.2277   141.2912 </r>
       <r>    -3.3022    47.1893   146.4816 </r>
       <r>    -3.1922    60.0623   153.0878 </r>
       <r>    -3.0823    66.9225   160.4486 </r>
       <r>    -2.9723    50.9988   166.0579 </r>
       <r>    -2.8623    30.7443   169.4395 </r>
       <r>    -2.7523    19.8998   171.6283 </r>
       <r>    -2.6423    17.3879   173.5408 </r>
       <r>    -2.5323    15.1716   175.2095 </r>
       <r>    -2.4223     6.9929   175.9786 </r>
       <r>    -2.3123    -0.8072   175.8899 </r>
       <r>    -2.2023     0.2245   175.9145 </r>
       <r>    -2.0923    14.6927   177.5306 </r>
       <r>    -1.9824    31.9253   181.0420 </r>
       <r>    -1.8724    32.9828   184.6698 </r>
       <r>    -1.7624    21.8275   187.0706 </r>
       <r>    -1.6524     8.5408   188.0100 </r>
       <r>    -1.5424     0.0704   188.0178 </r>
       <r>    -1.4324     2.6771   188.3122 </r>
       <r>    -1.3224    12.6486   189.7034 </r>
       <r>    -1.2124    15.1553   191.3704 </r>
       <r>    -1.1024     6.5736   192.0934 </r>
       <r>    -0.9925     0.0571   192.0997 </r>
       <r>    -0.8825    -0.6961   192.0231 </r>
       <r>    -0.7725    -0.1881   192.0024 </r>
       <r>    -0.6625    -0.0208   192.0001 </r>
       <r>    -0.5525    -0.0011   192.0000 </r>
       <r>    -0.4425    -0.0000   192.0000 </r>
       <r>    -0.3325    -0.0000   192.0000 </r>
       <r>    -0.2225    -0.0000   192.0000 </r>
       <r>    -0.1125    -0.0000   192.0000 </r>
       <r>    -0.0025    -0.0000   192.0000 </r>
       <r>     0.1074    -0.0001   192.0000 </r>
       <r>     0.2174    -0.0026   191.9997 </r>
       <r>     0.3274    -0.0436   191.9949 </r>
       <r>     0.4374    -0.3840   191.9527 </r>
       <r>     0.5474    -1.6242   191.7740 </r>
       <r>     0.6574    -1.9590   191.5586 </r>
       <r>     0.7674     8.7746   192.5237 </r>
       <r>     0.8774    40.0901   196.9332 </r>
       <r>     0.9874    74.5153   205.1291 </r>
       <r>     1.0974    86.4560   214.6384 </r>
       <r>     1.2073    90.6769   224.6119 </r>
       <r>     1.3173    93.6918   234.9170 </r>
       <r>     1.4273    72.2415   242.8628 </r>
       <r>     1.5373    46.2999   247.9554 </r>
       <r>     1.6473    41.4583   252.5153 </r>
       <r>     1.7573    46.0975   257.5856 </r>
       <r>     1.8673    48.0327   262.8687 </r>
       <r>     1.9773    50.8078   268.4570 </r>
       <r>     2.0873    62.5166   275.3332 </r>
       <r>     2.1972    71.0068   283.1432 </r>
       <r>     2.3072    63.5880   290.1372 </r>
       <r>     2.4172    51.6565   295.8189 </r>
       <r>     2.5272    36.9718   299.8855 </r>
       <r>     2.6372    17.0368   301.7593 </r>
       <r>     2.7472     3.2645   302.1184 </r>
       <r>     2.8572     2.0012   302.3385 </r>
       <r>     2.9672     7.9721   303.2153 </r>
       <r>     3.0772    13.3733   304.6863 </r>
       <r>     3.1872    19.3408   306.8136 </r>
       <r>     3.2971    24.7299   309.5336 </r>
       <r>     3.4071    18.6413   311.5840 </r>
       <r>     3.5171     5.4831   312.1870 </r>
       <r>     3.6271    -0.7573   312.1037 </r>
       <r>     3.7371    -0.9301   312.0014 </r>
       <r>     3.8471    -0.5766   311.9380 </r>
       <r>     3.9571     0.5494   311.9984 </r>
       <r>     4.0671     4.7653   312.5226 </r>
       <r>     4.1771     8.0668   313.4098 </r>
       <r>     4.2871     4.9012   313.9489 </r>
       <r>     4.3970     0.4141   313.9945 </r>
       <r>     4.5070     1.2233   314.1290 </r>
       <r>     4.6170     5.9760   314.7863 </r>
       <r>     4.7270     7.8626   315.6511 </r>
       <r>     4.8370     7.1316   316.4355 </r>
       <r>     4.9470     7.9269   317.3074 </r>
       <r>     5.0570     5.6936   317.9337 </r>
       <r>     5.1670     1.2559   318.0718 </r>
       <r>     5.2770    -0.3924   318.0286 </r>
       <r>     5.3869    -0.2208   318.0043 </r>
       <r>     5.4969    -0.0366   318.0003 </r>
       <r>     5.6069    -0.0033   318.0000 </r>
       <r>     5.7169    -0.0101   317.9988 </r>
       <r>     5.8269    -0.0937   317.9885 </r>
       <r>     5.9369    -0.3581   317.9491 </r>
       <r>     6.0469     0.0074   317.9500 </r>
       <r>     6.1569     3.3493   318.3183 </r>
       <r>     6.2669     7.7418   319.1699 </r>
       <r>     6.3769     6.4844   319.8831 </r>
       <r>     6.4868     1.7061   320.0707 </r>
       <r>     6.5968    -0.3450   320.0328 </r>
       <r>     6.7068    -0.2491   320.0054 </r>
       <r>     6.8168    -0.0451   320.0004 </r>
       <r>     6.9268    -0.0037   320.0000 </r>
       <r>     7.0368    -0.0001   320.0000 </r>
       <r>     7.1468    -0.0000   320.0000 </r>
       <r>     7.2568    -0.0000   320.0000 </r>
       <r>     7.3668    -0.0000   320.0000 </r>
       <r>     7.4768    -0.0000   320.0000 </r>
       <r>     7.5867     0.0000   320.0000 </r>
       <r>     7.6967     0.0000   320.0000 </r>
       <r>     7.8067     0.0000   320.0000 </r>
       <r>     7.9167     0.0000   320.0000 </r>
       <r>     8.0267     0.0000   320.0000 </r>
       <r>     8.1367     0.0000   320.0000 </r>
       <r>     8.2467     0.0000   320.0000 </r>
      </set>
     </set>
    </array>
   </total>
  </dos>
 </calculation>
 <structure name="finalpos" >
  <crystal>
   <varray name="basis" >
    <v>       3.25262800       0.00000000       0.00000000 </v>
    <v>       0.00000000      20.54938400       0.00000000 </v>
    <v>       0.00000000       0.00000000       6.79221100 </v>
   </varray>
   <i name="volume">    453.98799923 </i>
   <varray name="rec_basis" >
    <v>       0.30744370       0.00000000       0.00000000 </v>
    <v>       0.00000000       0.04866326       0.00000000 </v>
    <v>       0.00000000       0.00000000       0.14722746 </v>
   </varray>
  </crystal>
  <varray name="positions" >
   <v>       0.00000000       0.16671900       0.50139100 </v>
   <v>       0.00000000       0.83328100       0.50139100 </v>
   <v>       0.00000000       0.66671900       0.00139100 </v>
   <v>       0.00000000       0.33328100       0.00422200 </v>
   <v>       0.50000000       0.16602100       0.00000400 </v>
   <v>       0.50000000       0.83397900       0.00000400 </v>
   <v>       0.50000000       0.66602100       0.50000400 </v>
   <v>       0.50000000       0.33397900       0.50000400 </v>
   <v>       0.00000000       0.00000000       0.01216200 </v>
   <v>       0.00000000       0.50000000       0.51216200 </v>
   <v>       0.50000000       0.00000000       0.47240000 </v>
   <v>       0.50000000       0.50000000       0.97240000 </v>
   <v>       0.00000000       0.00000000       0.31436200 </v>
   <v>       0.00000000       0.50000000       0.82072700 </v>
   <v>       0.00000000       0.16816900       0.20329900 </v>
   <v>       0.00000000       0.83183100       0.20329900 </v>
   <v>       0.00000000       0.66816900       0.70329900 </v>
   <v>       0.99082900       0.33183100       0.70329900 </v>
   <v>       0.00000000       0.16838200       0.79934600 </v>
   <v>       0.00000000       0.83161800       0.80520300 </v>
   <v>       0.00000000       0.66838200       0.29934600 </v>
   <v>       0.00984800       0.32978300       0.29934600 </v>
   <v>       0.50000000       0.06837200       0.99633700 </v>
   <v>       0.50000000       0.93162800       0.99633700 </v>
   <v>       0.50000000       0.57428400       0.49633700 </v>
   <v>       0.49598700       0.43162800       0.49633700 </v>
   <v>       0.50000000       0.09818400       0.50567900 </v>
   <v>       0.50000000       0.90181600       0.50567900 </v>
   <v>       0.50000000       0.59818400       0.00567900 </v>
   <v>       0.50000000       0.40181600       0.01110200 </v>
   <v>       0.50000000       0.23406000       0.50152500 </v>
   <v>       0.50000000       0.76594000       0.50152500 </v>
   <v>       0.50000000       0.73406000       0.00152500 </v>
   <v>       0.50000000       0.25801500       0.00391300 </v>
   <v>       0.00000000       0.00000000       0.69474100 </v>
   <v>       0.00000000       0.49210000       0.19474100 </v>
  </varray>
 </structure>
</modeling>
