<?xml version="1.0" encoding="ISO-8859-1"?>
<modeling>
 <generator>
  <i name="program" type="string">vasp </i>
  <i name="version" type="string">5.3.5  </i>
  <i name="subversion" type="string">31Mar14 (build Aug 29 2014 19:41:47) complex                          parallel </i>
  <i name="platform" type="string">LinuxIFC </i>
  <i name="date" type="string">2019 04 11 </i>
  <i name="time" type="string">12:50:46 </i>
 </generator>
 <incar>
  <i type="string" name="SYSTEM"> Fe4OF7_var_6</i>
  <i type="int" name="ISTART">     0</i>
  <i type="string" name="PREC">normal</i>
  <i type="string" name="ALGO"> VeryFast</i>
  <i type="int" name="ISPIN">     1</i>
  <i type="int" name="ICHARG">     2</i>
  <i type="int" name="NELM">   300</i>
  <i type="int" name="ISYM">     0</i>
  <i type="logical" name="LWAVE"> F  </i>
  <i type="int" name="NELM">   300</i>
 </incar>
 <kpoints>
  <generation param="Gamma">
   <v type="int" name="divisions">       1        1        1 </v>
   <v name="usershift">      0.00000000       0.00000000       0.00000000 </v>
   <v name="genvec1">      1.00000000       0.00000000      -0.00000000 </v>
   <v name="genvec2">      0.00000000       1.00000000       0.00000000 </v>
   <v name="genvec3">      0.00000000       0.00000000       1.00000000 </v>
   <v name="shift">      0.00000000       0.00000000       0.00000000 </v>
  </generation>
  <varray name="kpointlist" >
   <v>       0.00000000       0.00000000       0.00000000 </v>
  </varray>
  <varray name="weights" >
   <v>       1.00000000 </v>
  </varray>
 </kpoints>
 <parameters>
  <separator name="general" >
   <i type="string" name="SYSTEM">Fe4OF7_var_6</i>
   <i type="logical" name="LCOMPAT"> F  </i>
  </separator>
  <separator name="electronic" >
   <i type="string" name="PREC">normal</i>
   <i name="ENMAX">    400.00000000</i>
   <i name="ENAUG">    613.61400000</i>
   <i name="EDIFF">      0.00010000</i>
   <i type="int" name="IALGO">    48</i>
   <i type="int" name="IWAVPR">    10</i>
   <i type="int" name="NBANDS">   104</i>
   <i name="NELECT">    174.00000000</i>
   <i type="int" name="TURBO">     0</i>
   <i type="int" name="IRESTART">     0</i>
   <i type="int" name="NREBOOT">     0</i>
   <i type="int" name="NMIN">     0</i>
   <i name="EREF">      0.00000000</i>
   <separator name="electronic smearing" >
    <i type="int" name="ISMEAR">     1</i>
    <i name="SIGMA">      0.20000000</i>
    <i name="KSPACING">      0.50000000</i>
    <i type="logical" name="KGAMMA"> T  </i>
   </separator>
   <separator name="electronic projectors" >
    <i type="logical" name="LREAL"> F  </i>
    <v name="ROPT">      0.00000000      0.00000000      0.00000000</v>
    <i type="int" name="LMAXPAW">  -100</i>
    <i type="int" name="LMAXMIX">     2</i>
    <i type="logical" name="NLSPLINE"> F  </i>
   </separator>
   <separator name="electronic startup" >
    <i type="int" name="ISTART">     0</i>
    <i type="int" name="ICHARG">     2</i>
    <i type="int" name="INIWAV">     1</i>
   </separator>
   <separator name="electronic spin" >
    <i type="int" name="ISPIN">     1</i>
    <i type="logical" name="LNONCOLLINEAR"> F  </i>
    <v name="MAGMOM">      1.00000000      1.00000000      1.00000000      1.00000000      1.00000000      1.00000000      1.00000000      1.00000000      1.00000000      1.00000000      1.00000000      1.00000000      1.00000000      1.00000000      1.00000000      1.00000000      1.00000000      1.00000000      1.00000000      1.00000000
      1.00000000      1.00000000      1.00000000      1.00000000</v>
    <i name="NUPDOWN">     -1.00000000</i>
    <i type="logical" name="LSORBIT"> F  </i>
    <v name="SAXIS">      0.00000000      0.00000000      1.00000000</v>
    <i type="logical" name="LSPIRAL"> F  </i>
    <v name="QSPIRAL">      0.00000000      0.00000000      0.00000000</v>
    <i type="logical" name="LZEROZ"> F  </i>
   </separator>
   <separator name="electronic exchange-correlation" >
    <i type="logical" name="LASPH"> F  </i>
    <i type="logical" name="LMETAGGA"> F  </i>
   </separator>
   <separator name="electronic convergence" >
    <i type="int" name="NELM">   300</i>
    <i type="int" name="NELMDL">   -12</i>
    <i type="int" name="NELMIN">     2</i>
    <i name="ENINI">    400.00000000</i>
    <separator name="electronic convergence detail" >
     <i type="logical" name="LDIAG"> T  </i>
     <i type="logical" name="LSUBROT"> F  </i>
     <i name="WEIMIN">      0.00000000</i>
     <i name="EBREAK">      0.00000024</i>
     <i name="DEPER">      0.30000000</i>
     <i type="int" name="NRMM">     4</i>
     <i name="TIME">      0.40000000</i>
    </separator>
   </separator>
   <separator name="electronic mixer" >
    <i name="AMIX">      0.40000000</i>
    <i name="BMIX">      1.00000000</i>
    <i name="AMIN">      0.10000000</i>
    <i name="AMIX_MAG">      1.60000000</i>
    <i name="BMIX_MAG">      1.00000000</i>
    <separator name="electronic mixer details" >
     <i type="int" name="IMIX">     4</i>
     <i type="int" name="MAXMIX">   -45</i>
     <i name="WC">    100.00000000</i>
     <i type="int" name="INIMIX">     1</i>
     <i type="int" name="MIXPRE">     1</i>
     <i type="int" name="MREMOVE">     5</i>
    </separator>
   </separator>
   <separator name="electronic dipolcorrection" >
    <i type="logical" name="LDIPOL"> F  </i>
    <i type="logical" name="LMONO"> F  </i>
    <i type="int" name="IDIPOL">     0</i>
    <i name="EPSILON">      1.00000000</i>
    <v name="DIPOL">   -100.00000000   -100.00000000   -100.00000000</v>
    <i name="EFIELD">      0.00000000</i>
   </separator>
  </separator>
  <separator name="grids" >
   <i type="int" name="NGX">    28</i>
   <i type="int" name="NGY">    24</i>
   <i type="int" name="NGZ">    54</i>
   <i type="int" name="NGXF">    56</i>
   <i type="int" name="NGYF">    48</i>
   <i type="int" name="NGZF">   108</i>
   <i type="logical" name="ADDGRID"> F  </i>
  </separator>
  <separator name="ionic" >
   <i type="int" name="NSW">     0</i>
   <i type="int" name="IBRION">    -1</i>
   <i type="int" name="ISIF">     2</i>
   <i name="PSTRESS">      0.00000000</i>
   <i name="EDIFFG">      0.00100000</i>
   <i type="int" name="NFREE">     0</i>
   <i name="POTIM">      0.50000000</i>
   <i name="SMASS">     -3.00000000</i>
   <i name="SCALEE">      1.00000000</i>
  </separator>
  <separator name="ionic md" >
   <i name="TEBEG">      0.00010000</i>
   <i name="TEEND">      0.00010000</i>
   <i type="int" name="NBLOCK">     1</i>
   <i type="int" name="KBLOCK">     1</i>
   <i type="int" name="NPACO">   256</i>
   <i name="APACO">     16.00000000</i>
  </separator>
  <separator name="symmetry" >
   <i type="int" name="ISYM">     0</i>
   <i name="SYMPREC">      0.00001000</i>
  </separator>
  <separator name="dos" >
   <i type="logical" name="LORBIT"> F  </i>
   <v name="RWIGS">     -1.00000000     -1.00000000     -1.00000000</v>
   <i type="int" name="NEDOS">   301</i>
   <i name="EMIN">     10.00000000</i>
   <i name="EMAX">    -10.00000000</i>
   <i name="EFERMI">      0.00000000</i>
  </separator>
  <separator name="writing" >
   <i type="int" name="NWRITE">     2</i>
   <i type="logical" name="LWAVE"> F  </i>
   <i type="logical" name="LCHARG"> T  </i>
   <i type="logical" name="LPARD"> F  </i>
   <i type="logical" name="LVTOT"> F  </i>
   <i type="logical" name="LVHAR"> F  </i>
   <i type="logical" name="LELF"> F  </i>
   <i type="logical" name="LOPTICS"> F  </i>
   <v name="STM">      0.00000000      0.00000000      0.00000000      0.00000000      0.00000000      0.00000000      0.00000000</v>
  </separator>
  <separator name="performance" >
   <i type="int" name="NPAR">     4</i>
   <i type="int" name="NSIM">     4</i>
   <i type="int" name="NBLK">    -1</i>
   <i type="logical" name="LPLANE"> T  </i>
   <i type="logical" name="LSCALAPACK"> T  </i>
   <i type="logical" name="LSCAAWARE"> F  </i>
   <i type="logical" name="LSCALU"> F  </i>
   <i type="logical" name="LASYNC"> F  </i>
   <i type="logical" name="LORBITALREAL"> F  </i>
  </separator>
  <separator name="miscellaneous" >
   <i type="int" name="IDIOT">     3</i>
   <i type="logical" name="LMUSIC"> F  </i>
   <v name="POMASS">     55.84700000     16.00000000     18.99800000</v>
   <v name="DARWINR">      0.00000000      0.00000000      0.00000000</v>
   <v name="DARWINV">      1.00000000      1.00000000      1.00000000</v>
   <i type="logical" name="LCORR"> T  </i>
  </separator>
  <i type="logical" name="GGA_COMPAT"> T  </i>
  <i type="logical" name="LBERRY"> F  </i>
  <i type="int" name="ICORELEVEL">     0</i>
  <i type="logical" name="LDAU"> F  </i>
  <i type="int" name="I_CONSTRAINED_M">     0</i>
  <separator name="electronic exchange-correlation" >
   <i type="string" name="GGA">--</i>
   <i type="int" name="VOSKOWN">     0</i>
   <i type="logical" name="LHFCALC"> F  </i>
   <i type="string" name="PRECFOCK"></i>
   <i type="logical" name="LSYMGRAD"> F  </i>
   <i type="logical" name="LHFONE"> F  </i>
   <i type="logical" name="LRHFCALC"> F  </i>
   <i type="logical" name="LTHOMAS"> F  </i>
   <i type="logical" name="LMODELHF"> F  </i>
   <i name="ENCUT4O">     -1.00000000</i>
   <i type="int" name="EXXOEP">     0</i>
   <i type="int" name="FOURORBIT">     0</i>
   <i name="AEXX">      0.00000000</i>
   <i name="HFALPHA">      0.00000000</i>
   <i name="MCALPHA">      0.00000000</i>
   <i name="ALDAX">      1.00000000</i>
   <i name="AGGAX">      1.00000000</i>
   <i name="ALDAC">      1.00000000</i>
   <i name="AGGAC">      1.00000000</i>
   <i type="int" name="NKREDX">     1</i>
   <i type="int" name="NKREDY">     1</i>
   <i type="int" name="NKREDZ">     1</i>
   <i type="logical" name="SHIFTRED"> F  </i>
   <i type="logical" name="ODDONLY"> F  </i>
   <i type="logical" name="EVENONLY"> F  </i>
   <i type="int" name="LMAXFOCK">     0</i>
   <i type="int" name="NMAXFOCKAE">     0</i>
   <i type="logical" name="LFOCKAEDFT"> F  </i>
   <i name="HFSCREEN">      0.00000000</i>
   <i name="HFSCREENC">      0.00000000</i>
   <i type="int" name="NBANDSGWLOW">     0</i>
  </separator>
  <separator name="vdW DFT" >
   <i type="logical" name="LUSE_VDW"> F  </i>
   <i name="Zab_VDW">     -0.84910000</i>
   <i name="PARAM1">      0.12340000</i>
   <i name="PARAM2">      1.00000000</i>
   <i name="PARAM3">      0.00000000</i>
  </separator>
  <separator name="model GW" >
   <i type="int" name="MODEL_GW">     0</i>
   <i name="MODEL_EPS0">      7.44386660</i>
   <i name="MODEL_ALPHA">      1.00000000</i>
  </separator>
  <separator name="linear response parameters" >
   <i type="logical" name="LEPSILON"> F  </i>
   <i type="logical" name="LRPA"> F  </i>
   <i type="logical" name="LNABLA"> F  </i>
   <i type="logical" name="LVEL"> F  </i>
   <i type="int" name="KINTER">     0</i>
   <i name="CSHIFT">      0.10000000</i>
   <i name="OMEGAMAX">     -1.00000000</i>
   <i name="DEG_THRESHOLD">      0.00200000</i>
  </separator>
  <separator name="orbital magnetization" >
   <i type="logical" name="NUCIND"> F  </i>
   <v name="MAGPOS">      0.00000000      0.00000000      0.00000000</v>
   <i type="logical" name="LNICSALL"> T  </i>
   <i type="logical" name="ORBITALMAG"> F  </i>
   <i type="logical" name="LMAGBLOCH"> F  </i>
   <i type="logical" name="LCHIMAG"> F  </i>
   <i type="logical" name="LGAUGE"> T  </i>
   <i type="int" name="MAGATOM">     0</i>
   <v name="MAGDIPOL">      0.00000000      0.00000000      0.00000000</v>
   <v name="AVECCONST">      0.00000000      0.00000000      0.00000000</v>
  </separator>
  <separator name="response functions" >
   <i type="logical" name="LADDER"> F  </i>
   <i type="logical" name="LFXC"> F  </i>
   <i type="logical" name="LHARTREE"> T  </i>
   <i type="int" name="IBSE">     0</i>
   <i type="logical" name="LTCTE"> F  </i>
   <i type="logical" name="LTETE"> F  </i>
   <i type="logical" name="LTRIPLET"> F  </i>
   <i type="logical" name="LFXCEPS"> F  </i>
   <i type="logical" name="LFXHEG"> F  </i>
   <i type="logical" name="L2ORDER"> F  </i>
   <i type="logical" name="LUSEW"> F  </i>
   <i name="ENCUTGW">     -2.00000000</i>
   <i name="ENCUTGWSOFT">     -2.00000000</i>
   <i name="ENCUTLF">     -1.00000000</i>
   <i type="int" name="LMAXMP2">    -1</i>
   <i name="SCISSOR">      0.00000000</i>
   <i type="int" name="NOMEGA">     0</i>
   <i type="int" name="NOMEGAR">     0</i>
   <i type="int" name="NBANDSGW">    -1</i>
   <i type="int" name="NBANDSO">    -1</i>
   <i type="int" name="NBANDSV">    -1</i>
   <i type="int" name="NELM">   300</i>
   <i type="int" name="DIM">     3</i>
   <i type="int" name="ANTIRES">     0</i>
   <i name="OMEGAMAX">    -30.00000000</i>
   <i name="OMEGAMIN">    -30.00000000</i>
   <i name="OMEGATL">   -200.00000000</i>
   <i type="int" name="OMEGAGRID">     0</i>
   <i name="CSHIFT">     -0.10000000</i>
   <i type="logical" name="SELFENERGY"> F  </i>
   <i type="logical" name="LSPECTRAL"> F  </i>
   <i type="logical" name="ODDONLYGW"> F  </i>
   <i type="logical" name="EVENONLYGW"> F  </i>
   <i type="int" name="NKREDLFX">     1</i>
   <i type="int" name="NKREDLFY">     1</i>
   <i type="int" name="NKREDLFZ">     1</i>
   <i type="int" name="MAXMEM">  1800</i>
   <i type="int" name="TELESCOPE">     0</i>
   <i type="int" name="TAUPAR">     1</i>
  </separator>
  <separator name="External order field" >
   <i name="OFIELD_KAPPA">      0.00000000</i>
   <v name="OFIELD_K">      0.00000000      0.00000000      0.00000000</v>
   <i name="OFIELD_Q6_NEAR">      0.00000000</i>
   <i name="OFIELD_Q6_FAR">      0.00000000</i>
   <i name="OFIELD_A">      0.00000000</i>
  </separator>
 </parameters>
 <atominfo>
  <atoms>      24 </atoms>
  <types>       3 </types>
  <array name="atoms" >
   <dimension dim="1">ion</dimension>
   <field type="string">element</field>
   <field type="int">atomtype</field>
   <set>
    <rc><c>Fe</c><c>   1</c></rc>
    <rc><c>Fe</c><c>   1</c></rc>
    <rc><c>Fe</c><c>   1</c></rc>
    <rc><c>Fe</c><c>   1</c></rc>
    <rc><c>Fe</c><c>   1</c></rc>
    <rc><c>Fe</c><c>   1</c></rc>
    <rc><c>Fe</c><c>   1</c></rc>
    <rc><c>Fe</c><c>   1</c></rc>
    <rc><c>O </c><c>   2</c></rc>
    <rc><c>O </c><c>   2</c></rc>
    <rc><c>F </c><c>   3</c></rc>
    <rc><c>F </c><c>   3</c></rc>
    <rc><c>F </c><c>   3</c></rc>
    <rc><c>F </c><c>   3</c></rc>
    <rc><c>F </c><c>   3</c></rc>
    <rc><c>F </c><c>   3</c></rc>
    <rc><c>F </c><c>   3</c></rc>
    <rc><c>F </c><c>   3</c></rc>
    <rc><c>F </c><c>   3</c></rc>
    <rc><c>F </c><c>   3</c></rc>
    <rc><c>F </c><c>   3</c></rc>
    <rc><c>F </c><c>   3</c></rc>
    <rc><c>F </c><c>   3</c></rc>
    <rc><c>F </c><c>   3</c></rc>
   </set>
  </array>
  <array name="atomtypes" >
   <dimension dim="1">type</dimension>
   <field type="int">atomspertype</field>
   <field type="string">element</field>
   <field>mass</field>
   <field>valence</field>
   <field type="string">pseudopotential</field>
   <set>
    <rc><c>   8</c><c>Fe</c><c>     55.84700000</c><c>      8.00000000</c><c>  PAW_PBE Fe 06Sep2000                  </c></rc>
    <rc><c>   2</c><c>O </c><c>     16.00000000</c><c>      6.00000000</c><c>  PAW_PBE O 08Apr2002                   </c></rc>
    <rc><c>  14</c><c>F </c><c>     18.99800000</c><c>      7.00000000</c><c>  PAW_PBE F 08Apr2002                   </c></rc>
   </set>
  </array>
 </atominfo>
 <structure name="initialpos" >
  <crystal>
   <varray name="basis" >
    <v>       5.73591900       0.00000000      -0.79026700 </v>
    <v>       0.00000000       4.76765000       0.00000000 </v>
    <v>       0.02984100       0.00000000      10.88396600 </v>
   </varray>
   <i name="volume">    297.75466397 </i>
   <varray name="rec_basis" >
    <v>       0.17427415       0.00000000      -0.00047781 </v>
    <v>       0.00000000       0.20974694       0.00000000 </v>
    <v>       0.01265376       0.00000000       0.09184358 </v>
   </varray>
  </crystal>
  <varray name="positions" >
   <v>       0.24699400       0.24850600       0.74623300 </v>
   <v>       0.24749200       0.74304200       0.25207300 </v>
   <v>       0.51485700       0.24497600       0.49879200 </v>
   <v>       0.51485700       0.75502400       0.99879200 </v>
   <v>       0.75373900       0.23127500       0.27381400 </v>
   <v>       0.75373900       0.76872500       0.76486200 </v>
   <v>       0.98683500       0.24137200       0.99652900 </v>
   <v>       0.99045900       0.75862800       0.49652900 </v>
   <v>       0.77857200       0.05199500       0.41725200 </v>
   <v>       0.77857200       0.94152200       0.92039600 </v>
   <v>       0.01370000       0.05755600       0.18278600 </v>
   <v>       0.01074200       0.94244400       0.68278600 </v>
   <v>       0.22224900       0.44944100       0.57080400 </v>
   <v>       0.22224900       0.55055900       0.07080400 </v>
   <v>       0.27923300       0.05174700       0.92203700 </v>
   <v>       0.27923300       0.94825300       0.42203700 </v>
   <v>       0.48187500       0.45353000       0.31584000 </v>
   <v>       0.48187500       0.54647000       0.82365100 </v>
   <v>       0.52253600       0.03560000       0.67416600 </v>
   <v>       0.52253600       0.96440000       0.17416600 </v>
   <v>       0.72235300       0.44302000       0.09109400 </v>
   <v>       0.72235300       0.55698000       0.59109400 </v>
   <v>       0.97343300       0.45650500       0.81960400 </v>
   <v>       0.97343300       0.54349500       0.31960400 </v>
  </varray>
 </structure>
 <calculation>
  <scstep>
   <time name="diag">    0.17    0.23</time>
   <time name="diis">    0.10    0.16</time>
   <time name="orth">    0.02    0.02</time>
   <time name="total">    0.43    0.70</time>
   <energy>
    <i name="alphaZ">    636.21861782 </i>
    <i name="ewald"> -10625.39025998 </i>
    <i name="hartreedc">  -4381.63308013 </i>
    <i name="XCdc">    595.65011683 </i>
    <i name="pawpsdc">  12680.77512887 </i>
    <i name="pawaedc"> -12817.41364524 </i>
    <i name="eentropy">     -0.02365804 </i>
    <i name="bandstr">   1189.02869092 </i>
    <i name="atom">  14851.27451460 </i>
    <i name="e_fr_energy">   2128.48642565 </i>
    <i name="e_wo_entrp">   2128.51008369 </i>
    <i name="e_0_energy">   2128.49431166 </i>
   </energy>
  </scstep>
  <scstep>
   <time name="diag">    0.05    0.10</time>
   <time name="diis">    0.10    0.20</time>
   <time name="orth">    0.01    0.01</time>
   <time name="total">    0.17    0.33</time>
   <energy>
    <i name="e_fr_energy">    662.08559276 </i>
    <i name="e_wo_entrp">    662.04260170 </i>
    <i name="e_0_energy">    662.07126241 </i>
   </energy>
  </scstep>
  <scstep>
   <time name="diag">    0.05    0.09</time>
   <time name="diis">    0.09    0.21</time>
   <time name="orth">    0.01    0.01</time>
   <time name="total">    0.15    0.31</time>
   <energy>
    <i name="e_fr_energy">    230.08995705 </i>
    <i name="e_wo_entrp">    230.07649985 </i>
    <i name="e_0_energy">    230.08547132 </i>
   </energy>
  </scstep>
  <scstep>
   <time name="diag">    0.05    0.12</time>
   <time name="diis">    0.09    0.17</time>
   <time name="orth">    0.02    0.02</time>
   <time name="total">    0.17    0.31</time>
   <energy>
    <i name="e_fr_energy">     46.19211752 </i>
    <i name="e_wo_entrp">     46.30202441 </i>
    <i name="e_0_energy">     46.22875315 </i>
   </energy>
  </scstep>
  <scstep>
   <time name="diag">    0.08    0.08</time>
   <time name="diis">    0.12    0.16</time>
   <time name="orth">    0.04    0.04</time>
   <time name="total">    0.24    0.29</time>
   <energy>
    <i name="e_fr_energy">    -59.56079336 </i>
    <i name="e_wo_entrp">    -59.52858830 </i>
    <i name="e_0_energy">    -59.55005834 </i>
   </energy>
  </scstep>
  <scstep>
   <time name="diag">    0.08    0.08</time>
   <time name="diis">    0.11    0.11</time>
   <time name="orth">    0.01    0.01</time>
   <time name="total">    0.20    0.20</time>
   <energy>
    <i name="e_fr_energy">   -109.27599023 </i>
    <i name="e_wo_entrp">   -109.28188967 </i>
    <i name="e_0_energy">   -109.27795671 </i>
   </energy>
  </scstep>
  <scstep>
   <time name="diag">    0.04    0.04</time>
   <time name="diis">    0.14    0.17</time>
   <time name="orth">    0.02    0.02</time>
   <time name="total">    0.20    0.23</time>
   <energy>
    <i name="e_fr_energy">   -134.23880536 </i>
    <i name="e_wo_entrp">   -134.26550830 </i>
    <i name="e_0_energy">   -134.24770634 </i>
   </energy>
  </scstep>
  <scstep>
   <time name="diag">    0.09    0.09</time>
   <time name="diis">    0.09    0.12</time>
   <time name="orth">    0.01    0.01</time>
   <time name="total">    0.19    0.22</time>
   <energy>
    <i name="e_fr_energy">   -144.87607933 </i>
    <i name="e_wo_entrp">   -144.89760653 </i>
    <i name="e_0_energy">   -144.88325506 </i>
   </energy>
  </scstep>
  <scstep>
   <time name="diag">    0.03    0.03</time>
   <time name="diis">    0.39    0.53</time>
   <time name="orth">    0.02    0.02</time>
   <time name="total">    0.45    0.59</time>
   <energy>
    <i name="e_fr_energy">   -155.19760666 </i>
    <i name="e_wo_entrp">   -155.21128813 </i>
    <i name="e_0_energy">   -155.20216715 </i>
   </energy>
  </scstep>
  <scstep>
   <time name="diag">    0.08    0.08</time>
   <time name="diis">    0.53    0.53</time>
   <time name="orth">    0.01    0.01</time>
   <time name="total">    0.62    0.62</time>
   <energy>
    <i name="e_fr_energy">   -155.54041113 </i>
    <i name="e_wo_entrp">   -155.56915398 </i>
    <i name="e_0_energy">   -155.54999208 </i>
   </energy>
  </scstep>
  <scstep>
   <time name="diag">    0.07    0.08</time>
   <time name="diis">    0.26    0.43</time>
   <time name="orth">    0.02    0.02</time>
   <time name="total">    0.35    0.53</time>
   <energy>
    <i name="e_fr_energy">   -155.78096400 </i>
    <i name="e_wo_entrp">   -155.81658830 </i>
    <i name="e_0_energy">   -155.79283877 </i>
   </energy>
  </scstep>
  <scstep>
   <time name="diag">    0.08    0.10</time>
   <time name="diis">    0.25    0.48</time>
   <time name="orth">    0.06    0.06</time>
   <time name="total">    0.46    0.70</time>
   <energy>
    <i name="e_fr_energy">   -155.90705312 </i>
    <i name="e_wo_entrp">   -155.94707615 </i>
    <i name="e_0_energy">   -155.92039413 </i>
   </energy>
  </scstep>
  <scstep>
   <time name="diag">    0.07    0.07</time>
   <time name="diis">    0.37    0.37</time>
   <time name="orth">    0.05    0.07</time>
   <time name="total">    0.77    0.80</time>
   <energy>
    <i name="e_fr_energy">   -151.80339888 </i>
    <i name="e_wo_entrp">   -151.79724506 </i>
    <i name="e_0_energy">   -151.80134760 </i>
   </energy>
  </scstep>
  <scstep>
   <time name="diag">    0.14    0.22</time>
   <time name="diis">    0.29    0.36</time>
   <time name="orth">    0.02    0.02</time>
   <time name="total">    0.53    0.70</time>
   <energy>
    <i name="e_fr_energy">   -181.24547079 </i>
    <i name="e_wo_entrp">   -181.18178316 </i>
    <i name="e_0_energy">   -181.22424158 </i>
   </energy>
  </scstep>
  <scstep>
   <time name="diag">    0.03    0.03</time>
   <time name="diis">    0.35    0.35</time>
   <time name="orth">    0.01    0.01</time>
   <time name="total">    0.49    0.49</time>
   <energy>
    <i name="e_fr_energy">   -143.68147771 </i>
    <i name="e_wo_entrp">   -143.54347232 </i>
    <i name="e_0_energy">   -143.63547591 </i>
   </energy>
  </scstep>
  <scstep>
   <time name="diag">    0.04    0.04</time>
   <time name="diis">    0.37    0.37</time>
   <time name="orth">    0.02    0.02</time>
   <time name="total">    0.58    0.58</time>
   <energy>
    <i name="e_fr_energy">   -138.46600991 </i>
    <i name="e_wo_entrp">   -138.54727695 </i>
    <i name="e_0_energy">   -138.49309893 </i>
   </energy>
  </scstep>
  <scstep>
   <time name="diag">    0.07    0.07</time>
   <time name="diis">    0.35    0.36</time>
   <time name="orth">    0.02    0.02</time>
   <time name="total">    0.53    0.53</time>
   <energy>
    <i name="e_fr_energy">   -158.28335216 </i>
    <i name="e_wo_entrp">   -158.22628630 </i>
    <i name="e_0_energy">   -158.26433020 </i>
   </energy>
  </scstep>
  <scstep>
   <time name="diag">    0.08    0.08</time>
   <time name="diis">    0.38    0.38</time>
   <time name="orth">    0.02    0.02</time>
   <time name="total">    0.58    0.58</time>
   <energy>
    <i name="e_fr_energy">   -154.16825437 </i>
    <i name="e_wo_entrp">   -154.12367783 </i>
    <i name="e_0_energy">   -154.15339552 </i>
   </energy>
  </scstep>
  <scstep>
   <time name="diag">    0.06    0.06</time>
   <time name="diis">    0.33    0.33</time>
   <time name="orth">    0.09    0.09</time>
   <time name="total">    0.58    0.58</time>
   <energy>
    <i name="e_fr_energy">   -144.20148871 </i>
    <i name="e_wo_entrp">   -144.25032178 </i>
    <i name="e_0_energy">   -144.21776640 </i>
   </energy>
  </scstep>
  <scstep>
   <time name="diag">    0.08    0.08</time>
   <time name="diis">    0.28    0.28</time>
   <time name="orth">    0.02    0.02</time>
   <time name="total">    0.48    0.48</time>
   <energy>
    <i name="e_fr_energy">   -152.69488839 </i>
    <i name="e_wo_entrp">   -152.60378735 </i>
    <i name="e_0_energy">   -152.66452138 </i>
   </energy>
  </scstep>
  <scstep>
   <time name="diag">    0.03    0.03</time>
   <time name="diis">    0.26    0.26</time>
   <time name="orth">    0.01    0.01</time>
   <time name="total">    0.44    0.44</time>
   <energy>
    <i name="e_fr_energy">   -140.08942684 </i>
    <i name="e_wo_entrp">   -140.04046966 </i>
    <i name="e_0_energy">   -140.07310778 </i>
   </energy>
  </scstep>
  <scstep>
   <time name="diag">    0.03    0.03</time>
   <time name="diis">    0.37    0.37</time>
   <time name="orth">    0.01    0.01</time>
   <time name="total">    0.49    0.49</time>
   <energy>
    <i name="e_fr_energy">   -136.18727762 </i>
    <i name="e_wo_entrp">   -136.20069048 </i>
    <i name="e_0_energy">   -136.19174857 </i>
   </energy>
  </scstep>
  <scstep>
   <time name="diag">    0.07    0.07</time>
   <time name="diis">    0.28    0.28</time>
   <time name="orth">    0.02    0.02</time>
   <time name="total">    0.44    0.44</time>
   <energy>
    <i name="e_fr_energy">   -135.41994932 </i>
    <i name="e_wo_entrp">   -135.35602756 </i>
    <i name="e_0_energy">   -135.39864207 </i>
   </energy>
  </scstep>
  <scstep>
   <time name="diag">    0.03    0.03</time>
   <time name="diis">    0.37    0.37</time>
   <time name="orth">    0.01    0.01</time>
   <time name="total">    0.55    0.55</time>
   <energy>
    <i name="e_fr_energy">   -133.93160086 </i>
    <i name="e_wo_entrp">   -133.89734471 </i>
    <i name="e_0_energy">   -133.92018215 </i>
   </energy>
  </scstep>
  <scstep>
   <time name="diag">    0.07    0.07</time>
   <time name="diis">    0.40    0.40</time>
   <time name="orth">    0.02    0.02</time>
   <time name="total">    0.60    0.60</time>
   <energy>
    <i name="e_fr_energy">   -132.65284192 </i>
    <i name="e_wo_entrp">   -132.61533088 </i>
    <i name="e_0_energy">   -132.64033824 </i>
   </energy>
  </scstep>
  <scstep>
   <time name="diag">    0.07    0.07</time>
   <time name="diis">    0.38    0.38</time>
   <time name="orth">    0.02    0.02</time>
   <time name="total">    0.56    0.56</time>
   <energy>
    <i name="e_fr_energy">   -132.34372531 </i>
    <i name="e_wo_entrp">   -132.25559583 </i>
    <i name="e_0_energy">   -132.31434882 </i>
   </energy>
  </scstep>
  <scstep>
   <time name="diag">    0.07    0.07</time>
   <time name="diis">    0.56    0.56</time>
   <time name="orth">    0.02    0.02</time>
   <time name="total">    0.74    0.74</time>
   <energy>
    <i name="e_fr_energy">   -132.31376056 </i>
    <i name="e_wo_entrp">   -132.28321320 </i>
    <i name="e_0_energy">   -132.30357811 </i>
   </energy>
  </scstep>
  <scstep>
   <time name="diag">    0.09    0.09</time>
   <time name="diis">    0.47    0.47</time>
   <time name="orth">    0.02    0.02</time>
   <time name="total">    0.69    0.69</time>
   <energy>
    <i name="e_fr_energy">   -132.41686279 </i>
    <i name="e_wo_entrp">   -132.38032097 </i>
    <i name="e_0_energy">   -132.40468218 </i>
   </energy>
  </scstep>
  <scstep>
   <time name="diag">    0.08    0.08</time>
   <time name="diis">    0.22    0.43</time>
   <time name="orth">    0.01    0.02</time>
   <time name="total">    0.43    0.68</time>
   <energy>
    <i name="e_fr_energy">   -132.48078205 </i>
    <i name="e_wo_entrp">   -132.45300207 </i>
    <i name="e_0_energy">   -132.47152206 </i>
   </energy>
  </scstep>
  <scstep>
   <time name="diag">    0.12    0.12</time>
   <time name="diis">    0.32    0.33</time>
   <time name="orth">    0.02    0.02</time>
   <time name="total">    0.53    0.55</time>
   <energy>
    <i name="e_fr_energy">   -132.48932605 </i>
    <i name="e_wo_entrp">   -132.48167226 </i>
    <i name="e_0_energy">   -132.48677479 </i>
   </energy>
  </scstep>
  <scstep>
   <time name="diag">    0.16    0.16</time>
   <time name="diis">    0.45    0.45</time>
   <time name="orth">    0.02    0.02</time>
   <time name="total">    0.82    0.82</time>
   <energy>
    <i name="e_fr_energy">   -132.49632556 </i>
    <i name="e_wo_entrp">   -132.49009248 </i>
    <i name="e_0_energy">   -132.49424787 </i>
   </energy>
  </scstep>
  <scstep>
   <time name="diag">    0.03    0.03</time>
   <time name="diis">    0.24    0.24</time>
   <time name="orth">    0.04    0.05</time>
   <time name="total">    0.38    0.38</time>
   <energy>
    <i name="e_fr_energy">   -132.48994262 </i>
    <i name="e_wo_entrp">   -132.48135966 </i>
    <i name="e_0_energy">   -132.48708164 </i>
   </energy>
  </scstep>
  <scstep>
   <time name="diag">    0.03    0.03</time>
   <time name="diis">    0.26    0.26</time>
   <time name="orth">    0.02    0.02</time>
   <time name="total">    0.39    0.39</time>
   <energy>
    <i name="e_fr_energy">   -132.49312073 </i>
    <i name="e_wo_entrp">   -132.49244472 </i>
    <i name="e_0_energy">   -132.49289539 </i>
   </energy>
  </scstep>
  <scstep>
   <time name="diag">    0.06    0.06</time>
   <time name="diis">    0.26    0.26</time>
   <time name="orth">    0.02    0.02</time>
   <time name="total">    0.50    0.50</time>
   <energy>
    <i name="e_fr_energy">   -132.49190573 </i>
    <i name="e_wo_entrp">   -132.48492417 </i>
    <i name="e_0_energy">   -132.48957854 </i>
   </energy>
  </scstep>
  <scstep>
   <time name="diag">    0.07    0.07</time>
   <time name="diis">    0.25    0.25</time>
   <time name="orth">    0.06    0.06</time>
   <time name="total">    0.48    0.48</time>
   <energy>
    <i name="e_fr_energy">   -132.49514153 </i>
    <i name="e_wo_entrp">   -132.49500336 </i>
    <i name="e_0_energy">   -132.49509548 </i>
   </energy>
  </scstep>
  <scstep>
   <time name="diag">    0.07    0.07</time>
   <time name="diis">    0.24    0.24</time>
   <time name="orth">    0.04    0.04</time>
   <time name="total">    0.44    0.44</time>
   <energy>
    <i name="e_fr_energy">   -132.49498659 </i>
    <i name="e_wo_entrp">   -132.49327760 </i>
    <i name="e_0_energy">   -132.49441693 </i>
   </energy>
  </scstep>
  <scstep>
   <time name="diag">    0.07    0.07</time>
   <time name="diis">    0.25    0.25</time>
   <time name="orth">    0.01    0.01</time>
   <time name="total">    0.42    0.42</time>
   <energy>
    <i name="e_fr_energy">   -132.49656611 </i>
    <i name="e_wo_entrp">   -132.49886167 </i>
    <i name="e_0_energy">   -132.49733130 </i>
   </energy>
  </scstep>
  <scstep>
   <time name="diag">    0.05    0.05</time>
   <time name="diis">    0.18    0.18</time>
   <time name="orth">    0.01    0.01</time>
   <time name="total">    0.35    0.35</time>
   <energy>
    <i name="e_fr_energy">   -132.49669113 </i>
    <i name="e_wo_entrp">   -132.49776819 </i>
    <i name="e_0_energy">   -132.49705015 </i>
   </energy>
  </scstep>
  <scstep>
   <time name="diag">    0.07    0.07</time>
   <time name="diis">    0.25    0.25</time>
   <time name="orth">    0.02    0.02</time>
   <time name="total">    0.42    0.42</time>
   <energy>
    <i name="e_fr_energy">   -132.49753761 </i>
    <i name="e_wo_entrp">   -132.50115562 </i>
    <i name="e_0_energy">   -132.49874361 </i>
   </energy>
  </scstep>
  <scstep>
   <time name="diag">    0.05    0.05</time>
   <time name="diis">    0.18    0.18</time>
   <time name="orth">    0.01    0.01</time>
   <time name="total">    0.31    0.31</time>
   <energy>
    <i name="alphaZ">    636.21861782 </i>
    <i name="ewald"> -10625.39025998 </i>
    <i name="hartreedc">  -4460.77671826 </i>
    <i name="XCdc">    604.86403998 </i>
    <i name="pawpsdc">  14905.94459015 </i>
    <i name="pawaedc"> -15046.78809151 </i>
    <i name="eentropy">      0.00247754 </i>
    <i name="bandstr">   -997.84661844 </i>
    <i name="atom">  14851.27451460 </i>
    <i name="e_fr_energy">   -132.49744810 </i>
    <i name="e_wo_entrp">   -132.49992564 </i>
    <i name="e_0_energy">   -132.49827394 </i>
   </energy>
  </scstep>
  <structure>
   <crystal>
    <varray name="basis" >
     <v>       5.73591900       0.00000000      -0.79026700 </v>
     <v>       0.00000000       4.76765000       0.00000000 </v>
     <v>       0.02984100       0.00000000      10.88396600 </v>
    </varray>
    <i name="volume">    297.75466397 </i>
    <varray name="rec_basis" >
     <v>       0.17427415       0.00000000      -0.00047781 </v>
     <v>       0.00000000       0.20974694       0.00000000 </v>
     <v>       0.01265376       0.00000000       0.09184358 </v>
    </varray>
   </crystal>
   <varray name="positions" >
    <v>       0.24699400       0.24850600       0.74623300 </v>
    <v>       0.24749200       0.74304200       0.25207300 </v>
    <v>       0.51485700       0.24497600       0.49879200 </v>
    <v>       0.51485700       0.75502400       0.99879200 </v>
    <v>       0.75373900       0.23127500       0.27381400 </v>
    <v>       0.75373900       0.76872500       0.76486200 </v>
    <v>       0.98683500       0.24137200       0.99652900 </v>
    <v>       0.99045900       0.75862800       0.49652900 </v>
    <v>       0.77857200       0.05199500       0.41725200 </v>
    <v>       0.77857200       0.94152200       0.92039600 </v>
    <v>       0.01370000       0.05755600       0.18278600 </v>
    <v>       0.01074200       0.94244400       0.68278600 </v>
    <v>       0.22224900       0.44944100       0.57080400 </v>
    <v>       0.22224900       0.55055900       0.07080400 </v>
    <v>       0.27923300       0.05174700       0.92203700 </v>
    <v>       0.27923300       0.94825300       0.42203700 </v>
    <v>       0.48187500       0.45353000       0.31584000 </v>
    <v>       0.48187500       0.54647000       0.82365100 </v>
    <v>       0.52253600       0.03560000       0.67416600 </v>
    <v>       0.52253600       0.96440000       0.17416600 </v>
    <v>       0.72235300       0.44302000       0.09109400 </v>
    <v>       0.72235300       0.55698000       0.59109400 </v>
    <v>       0.97343300       0.45650500       0.81960400 </v>
    <v>       0.97343300       0.54349500       0.31960400 </v>
   </varray>
  </structure>
  <varray name="forces" >
   <v>       0.10317730      -0.03795661       0.01765691 </v>
   <v>       0.10301259       0.40786444      -1.11570815 </v>
   <v>       0.91117047      -0.79579639      -0.64201707 </v>
   <v>       0.94251030       0.70581225      -0.57698739 </v>
   <v>       0.33429231       0.16898174      -1.91659862 </v>
   <v>       0.07479496      -0.21350523       0.18348511 </v>
   <v>      -0.79098349      -1.27485623      -0.41146304 </v>
   <v>      -0.90609304       1.16933017      -0.63686217 </v>
   <v>      -0.40797087      -0.27739106       2.09298807 </v>
   <v>      -0.49630676       0.17528093       1.02896370 </v>
   <v>       0.25346095      -0.41667745       0.28491178 </v>
   <v>       0.35829395       0.40488053      -0.06347694 </v>
   <v>       0.02952797      -0.12797333       0.32224997 </v>
   <v>       0.02378052       0.14172478       0.33142418 </v>
   <v>      -0.28532151       0.23842372      -0.07603808 </v>
   <v>      -0.23873415      -0.31846756       0.05746743 </v>
   <v>      -0.41077957      -0.07983494       0.99257841 </v>
   <v>      -0.12650164       0.11209920       0.16189743 </v>
   <v>      -0.33463426       0.67121896       0.21233226 </v>
   <v>      -0.29834310      -0.70924203       0.34930039 </v>
   <v>       0.18124908       0.13392574      -0.90608421 </v>
   <v>       0.17877552      -0.08681918      -0.88213163 </v>
   <v>       0.36754614      -0.40309836       0.43341018 </v>
   <v>       0.43407634       0.41207593       0.75870149 </v>
  </varray>
  <varray name="stress" >
   <v>    -240.54556097      -1.88786936      19.03481538 </v>
   <v>      -1.88787023    -256.72584247      -2.46187002 </v>
   <v>      19.03481516      -2.46186993    -286.10469186 </v>
  </varray>
  <energy>
   <i name="e_fr_energy">   -132.49744810 </i>
   <i name="e_wo_entrp">   -132.49827394 </i>
   <i name="e_0_energy">      0.00247754 </i>
  </energy>
  <time name="totalsc">   19.15   21.02</time>
  <eigenvalues>
   <array>
    <dimension dim="1">band</dimension>
    <dimension dim="2">kpoint</dimension>
    <dimension dim="3">spin</dimension>
    <field>eigene</field>
    <field>occ</field>
    <set>
     <set comment="spin 1">
      <set comment="kpoint 1">
       <r>  -22.7229    1.0000 </r>
       <r>  -22.6206    1.0000 </r>
       <r>  -22.4675    1.0000 </r>
       <r>  -22.3290    1.0000 </r>
       <r>  -22.3126    1.0000 </r>
       <r>  -22.2514    1.0000 </r>
       <r>  -22.1937    1.0000 </r>
       <r>  -22.1380    1.0000 </r>
       <r>  -22.0308    1.0000 </r>
       <r>  -21.9786    1.0000 </r>
       <r>  -21.9294    1.0000 </r>
       <r>  -21.8656    1.0000 </r>
       <r>  -21.7371    1.0000 </r>
       <r>  -21.6143    1.0000 </r>
       <r>  -17.0695    1.0000 </r>
       <r>  -16.6715    1.0000 </r>
       <r>   -6.1224    1.0000 </r>
       <r>   -5.7793    1.0000 </r>
       <r>   -5.3104    1.0000 </r>
       <r>   -5.2637    1.0000 </r>
       <r>   -5.1862    1.0000 </r>
       <r>   -5.1341    1.0000 </r>
       <r>   -5.0007    1.0000 </r>
       <r>   -4.8801    1.0000 </r>
       <r>   -4.7979    1.0000 </r>
       <r>   -4.7437    1.0000 </r>
       <r>   -4.6523    1.0000 </r>
       <r>   -4.5966    1.0000 </r>
       <r>   -4.5531    1.0000 </r>
       <r>   -4.4998    1.0000 </r>
       <r>   -4.4411    1.0000 </r>
       <r>   -4.3894    1.0000 </r>
       <r>   -4.3157    1.0000 </r>
       <r>   -4.3073    1.0000 </r>
       <r>   -4.2352    1.0000 </r>
       <r>   -4.1820    1.0000 </r>
       <r>   -4.1228    1.0000 </r>
       <r>   -4.0950    1.0000 </r>
       <r>   -4.0243    1.0000 </r>
       <r>   -3.9699    1.0000 </r>
       <r>   -3.9359    1.0000 </r>
       <r>   -3.8762    1.0000 </r>
       <r>   -3.8612    1.0000 </r>
       <r>   -3.8016    1.0000 </r>
       <r>   -3.7045    1.0000 </r>
       <r>   -3.5753    1.0000 </r>
       <r>   -3.5027    1.0000 </r>
       <r>   -3.3686    1.0000 </r>
       <r>   -3.3585    1.0000 </r>
       <r>   -3.2734    1.0000 </r>
       <r>   -3.1398    1.0000 </r>
       <r>   -3.0297    1.0000 </r>
       <r>   -2.9555    1.0000 </r>
       <r>   -2.8689    1.0000 </r>
       <r>   -2.7865    1.0000 </r>
       <r>   -2.7313    1.0000 </r>
       <r>   -2.6617    1.0000 </r>
       <r>   -2.6017    1.0000 </r>
       <r>   -2.5237    1.0000 </r>
       <r>   -2.4041    1.0000 </r>
       <r>   -2.3292    1.0000 </r>
       <r>   -2.1780    1.0000 </r>
       <r>   -1.8672    1.0000 </r>
       <r>   -1.4863    1.0000 </r>
       <r>    0.9224    1.0000 </r>
       <r>    0.9379    1.0000 </r>
       <r>    1.0060    1.0000 </r>
       <r>    1.0254    1.0000 </r>
       <r>    1.0619    1.0001 </r>
       <r>    1.0731    1.0001 </r>
       <r>    1.0968    1.0003 </r>
       <r>    1.1307    1.0006 </r>
       <r>    1.1863    1.0021 </r>
       <r>    1.2146    1.0036 </r>
       <r>    1.2534    1.0073 </r>
       <r>    1.2933    1.0133 </r>
       <r>    1.3166    1.0180 </r>
       <r>    1.3379    1.0227 </r>
       <r>    1.3920    1.0338 </r>
       <r>    1.4195    1.0354 </r>
       <r>    1.4614    1.0240 </r>
       <r>    1.4835    1.0076 </r>
       <r>    1.5079    0.9782 </r>
       <r>    1.5375    0.9241 </r>
       <r>    1.5665    0.8496 </r>
       <r>    1.5910    0.7712 </r>
       <r>    1.6142    0.6855 </r>
       <r>    1.6906    0.3694 </r>
       <r>    1.6961    0.3471 </r>
       <r>    1.8325   -0.0051 </r>
       <r>    1.9113   -0.0353 </r>
       <r>    1.9720   -0.0248 </r>
       <r>    1.9974   -0.0190 </r>
       <r>    2.0736   -0.0063 </r>
       <r>    2.1274   -0.0023 </r>
       <r>    2.1532   -0.0013 </r>
       <r>    2.3984   -0.0000 </r>
       <r>    2.4860   -0.0000 </r>
       <r>    2.7983   -0.0000 </r>
       <r>    2.8830   -0.0000 </r>
       <r>    2.9193   -0.0000 </r>
       <r>    2.9746   -0.0000 </r>
       <r>    3.0675   -0.0000 </r>
       <r>    3.2538   -0.0000 </r>
      </set>
     </set>
    </set>
   </array>
  </eigenvalues>
  <separator name="orbital magnetization" >
   <v name="MAGDIPOLOUT">      0.00000000      0.00000000      0.00000000</v>
  </separator>
  <dos>
   <i name="efermi">      1.65930918 </i>
   <total>
    <array>
     <dimension dim="1">gridpoints</dimension>
     <dimension dim="2">spin</dimension>
     <field>energy</field>
     <field>total</field>
     <field>integrated</field>
     <set>
      <set comment="spin 1">
       <r>   -24.7229     0.0000     0.0000 </r>
       <r>   -24.6230     0.0000     0.0000 </r>
       <r>   -24.5231     0.0000     0.0000 </r>
       <r>   -24.4232     0.0000     0.0000 </r>
       <r>   -24.3233    -0.0000    -0.0000 </r>
       <r>   -24.2233    -0.0000    -0.0000 </r>
       <r>   -24.1234    -0.0000    -0.0000 </r>
       <r>   -24.0235    -0.0000    -0.0000 </r>
       <r>   -23.9236    -0.0000    -0.0000 </r>
       <r>   -23.8236    -0.0000    -0.0000 </r>
       <r>   -23.7237    -0.0000    -0.0000 </r>
       <r>   -23.6238    -0.0000    -0.0000 </r>
       <r>   -23.5239    -0.0000    -0.0000 </r>
       <r>   -23.4239    -0.0001    -0.0000 </r>
       <r>   -23.3240    -0.0018    -0.0002 </r>
       <r>   -23.2241    -0.0224    -0.0024 </r>
       <r>   -23.1242    -0.1543    -0.0178 </r>
       <r>   -23.0243    -0.5259    -0.0704 </r>
       <r>   -22.9243    -0.4107    -0.1114 </r>
       <r>   -22.8244     2.7459     0.1629 </r>
       <r>   -22.7245     9.5796     1.1202 </r>
       <r>   -22.6246    14.6258     2.5816 </r>
       <r>   -22.5246    14.8693     4.0674 </r>
       <r>   -22.4247    17.0074     5.7668 </r>
       <r>   -22.3248    25.5681     8.3216 </r>
       <r>   -22.2249    32.9641    11.6155 </r>
       <r>   -22.1250    32.5436    14.8673 </r>
       <r>   -22.0250    30.3243    17.8974 </r>
       <r>   -21.9251    29.8894    20.8840 </r>
       <r>   -21.8252    25.9274    23.4748 </r>
       <r>   -21.7253    19.4689    25.4201 </r>
       <r>   -21.6253    14.6178    26.8808 </r>
       <r>   -21.5254     9.1688    27.7970 </r>
       <r>   -21.4255     3.0080    28.0975 </r>
       <r>   -21.3256    -0.2307    28.0745 </r>
       <r>   -21.2257    -0.5354    28.0210 </r>
       <r>   -21.1257    -0.1787    28.0031 </r>
       <r>   -21.0258    -0.0285    28.0003 </r>
       <r>   -20.9259    -0.0025    28.0000 </r>
       <r>   -20.8260    -0.0001    28.0000 </r>
       <r>   -20.7260    -0.0000    28.0000 </r>
       <r>   -20.6261    -0.0000    28.0000 </r>
       <r>   -20.5262    -0.0000    28.0000 </r>
       <r>   -20.4263    -0.0000    28.0000 </r>
       <r>   -20.3264    -0.0000    28.0000 </r>
       <r>   -20.2264     0.0000    28.0000 </r>
       <r>   -20.1265     0.0000    28.0000 </r>
       <r>   -20.0266     0.0000    28.0000 </r>
       <r>   -19.9267     0.0000    28.0000 </r>
       <r>   -19.8267     0.0000    28.0000 </r>
       <r>   -19.7268     0.0000    28.0000 </r>
       <r>   -19.6269     0.0000    28.0000 </r>
       <r>   -19.5270     0.0000    28.0000 </r>
       <r>   -19.4271     0.0000    28.0000 </r>
       <r>   -19.3271     0.0000    28.0000 </r>
       <r>   -19.2272     0.0000    28.0000 </r>
       <r>   -19.1273     0.0000    28.0000 </r>
       <r>   -19.0274     0.0000    28.0000 </r>
       <r>   -18.9274     0.0000    28.0000 </r>
       <r>   -18.8275     0.0000    28.0000 </r>
       <r>   -18.7276    -0.0000    28.0000 </r>
       <r>   -18.6277    -0.0000    28.0000 </r>
       <r>   -18.5277    -0.0000    28.0000 </r>
       <r>   -18.4278    -0.0000    28.0000 </r>
       <r>   -18.3279    -0.0000    28.0000 </r>
       <r>   -18.2280    -0.0000    28.0000 </r>
       <r>   -18.1281    -0.0000    28.0000 </r>
       <r>   -18.0281    -0.0000    28.0000 </r>
       <r>   -17.9282    -0.0000    28.0000 </r>
       <r>   -17.8283    -0.0000    28.0000 </r>
       <r>   -17.7284    -0.0003    28.0000 </r>
       <r>   -17.6284    -0.0053    27.9994 </r>
       <r>   -17.5285    -0.0495    27.9945 </r>
       <r>   -17.4286    -0.2373    27.9708 </r>
       <r>   -17.3287    -0.4035    27.9305 </r>
       <r>   -17.2288     0.9090    28.0213 </r>
       <r>   -17.1288     4.9510    28.5160 </r>
       <r>   -17.0289     7.9069    29.3061 </r>
       <r>   -16.9290     5.4614    29.8518 </r>
       <r>   -16.8291     2.4536    30.0970 </r>
       <r>   -16.7291     4.7412    30.5707 </r>
       <r>   -16.6292     7.8674    31.3569 </r>
       <r>   -16.5293     5.7174    31.9282 </r>
       <r>   -16.4294     1.4286    32.0709 </r>
       <r>   -16.3295    -0.3472    32.0362 </r>
       <r>   -16.2295    -0.2857    32.0077 </r>
       <r>   -16.1296    -0.0681    32.0009 </r>
       <r>   -16.0297    -0.0081    32.0001 </r>
       <r>   -15.9298    -0.0005    32.0000 </r>
       <r>   -15.8298    -0.0000    32.0000 </r>
       <r>   -15.7299    -0.0000    32.0000 </r>
       <r>   -15.6300    -0.0000    32.0000 </r>
       <r>   -15.5301    -0.0000    32.0000 </r>
       <r>   -15.4302    -0.0000    32.0000 </r>
       <r>   -15.3302     0.0000    32.0000 </r>
       <r>   -15.2303     0.0000    32.0000 </r>
       <r>   -15.1304     0.0000    32.0000 </r>
       <r>   -15.0305     0.0000    32.0000 </r>
       <r>   -14.9305     0.0000    32.0000 </r>
       <r>   -14.8306     0.0000    32.0000 </r>
       <r>   -14.7307     0.0000    32.0000 </r>
       <r>   -14.6308     0.0000    32.0000 </r>
       <r>   -14.5309     0.0000    32.0000 </r>
       <r>   -14.4309     0.0000    32.0000 </r>
       <r>   -14.3310     0.0000    32.0000 </r>
       <r>   -14.2311     0.0000    32.0000 </r>
       <r>   -14.1312     0.0000    32.0000 </r>
       <r>   -14.0312     0.0000    32.0000 </r>
       <r>   -13.9313     0.0000    32.0000 </r>
       <r>   -13.8314     0.0000    32.0000 </r>
       <r>   -13.7315     0.0000    32.0000 </r>
       <r>   -13.6315     0.0000    32.0000 </r>
       <r>   -13.5316     0.0000    32.0000 </r>
       <r>   -13.4317     0.0000    32.0000 </r>
       <r>   -13.3318     0.0000    32.0000 </r>
       <r>   -13.2319     0.0000    32.0000 </r>
       <r>   -13.1319     0.0000    32.0000 </r>
       <r>   -13.0320     0.0000    32.0000 </r>
       <r>   -12.9321     0.0000    32.0000 </r>
       <r>   -12.8322     0.0000    32.0000 </r>
       <r>   -12.7322     0.0000    32.0000 </r>
       <r>   -12.6323     0.0000    32.0000 </r>
       <r>   -12.5324     0.0000    32.0000 </r>
       <r>   -12.4325     0.0000    32.0000 </r>
       <r>   -12.3326     0.0000    32.0000 </r>
       <r>   -12.2326     0.0000    32.0000 </r>
       <r>   -12.1327     0.0000    32.0000 </r>
       <r>   -12.0328     0.0000    32.0000 </r>
       <r>   -11.9329     0.0000    32.0000 </r>
       <r>   -11.8329     0.0000    32.0000 </r>
       <r>   -11.7330     0.0000    32.0000 </r>
       <r>   -11.6331     0.0000    32.0000 </r>
       <r>   -11.5332     0.0000    32.0000 </r>
       <r>   -11.4333     0.0000    32.0000 </r>
       <r>   -11.3333     0.0000    32.0000 </r>
       <r>   -11.2334     0.0000    32.0000 </r>
       <r>   -11.1335     0.0000    32.0000 </r>
       <r>   -11.0336     0.0000    32.0000 </r>
       <r>   -10.9336     0.0000    32.0000 </r>
       <r>   -10.8337     0.0000    32.0000 </r>
       <r>   -10.7338     0.0000    32.0000 </r>
       <r>   -10.6339     0.0000    32.0000 </r>
       <r>   -10.5340     0.0000    32.0000 </r>
       <r>   -10.4340     0.0000    32.0000 </r>
       <r>   -10.3341     0.0000    32.0000 </r>
       <r>   -10.2342     0.0000    32.0000 </r>
       <r>   -10.1343     0.0000    32.0000 </r>
       <r>   -10.0343     0.0000    32.0000 </r>
       <r>    -9.9344     0.0000    32.0000 </r>
       <r>    -9.8345     0.0000    32.0000 </r>
       <r>    -9.7346     0.0000    32.0000 </r>
       <r>    -9.6346     0.0000    32.0000 </r>
       <r>    -9.5347     0.0000    32.0000 </r>
       <r>    -9.4348     0.0000    32.0000 </r>
       <r>    -9.3349     0.0000    32.0000 </r>
       <r>    -9.2350     0.0000    32.0000 </r>
       <r>    -9.1350     0.0000    32.0000 </r>
       <r>    -9.0351     0.0000    32.0000 </r>
       <r>    -8.9352     0.0000    32.0000 </r>
       <r>    -8.8353     0.0000    32.0000 </r>
       <r>    -8.7353     0.0000    32.0000 </r>
       <r>    -8.6354     0.0000    32.0000 </r>
       <r>    -8.5355     0.0000    32.0000 </r>
       <r>    -8.4356     0.0000    32.0000 </r>
       <r>    -8.3357     0.0000    32.0000 </r>
       <r>    -8.2357     0.0000    32.0000 </r>
       <r>    -8.1358     0.0000    32.0000 </r>
       <r>    -8.0359     0.0000    32.0000 </r>
       <r>    -7.9360     0.0000    32.0000 </r>
       <r>    -7.8360     0.0000    32.0000 </r>
       <r>    -7.7361    -0.0000    32.0000 </r>
       <r>    -7.6362    -0.0000    32.0000 </r>
       <r>    -7.5363    -0.0000    32.0000 </r>
       <r>    -7.4364    -0.0000    32.0000 </r>
       <r>    -7.3364    -0.0000    32.0000 </r>
       <r>    -7.2365    -0.0000    32.0000 </r>
       <r>    -7.1366    -0.0000    32.0000 </r>
       <r>    -7.0367    -0.0000    32.0000 </r>
       <r>    -6.9367    -0.0000    32.0000 </r>
       <r>    -6.8368    -0.0001    32.0000 </r>
       <r>    -6.7369    -0.0012    31.9999 </r>
       <r>    -6.6370    -0.0154    31.9983 </r>
       <r>    -6.5371    -0.1087    31.9875 </r>
       <r>    -6.4371    -0.3610    31.9514 </r>
       <r>    -6.3372    -0.1440    31.9370 </r>
       <r>    -6.2373     2.4108    32.1779 </r>
       <r>    -6.1374     6.6666    32.8440 </r>
       <r>    -6.0374     7.3884    33.5823 </r>
       <r>    -5.9375     4.7313    34.0551 </r>
       <r>    -5.8376     5.3418    34.5888 </r>
       <r>    -5.7377     7.6068    35.3489 </r>
       <r>    -5.6378     5.0454    35.8531 </r>
       <r>    -5.5378     0.3598    35.8890 </r>
       <r>    -5.4379     1.3002    36.0190 </r>
       <r>    -5.3380    11.1881    37.1369 </r>
       <r>    -5.2381    23.5503    39.4901 </r>
       <r>    -5.1381    27.0458    42.1926 </r>
       <r>    -5.0382    21.5873    44.3496 </r>
       <r>    -4.9383    17.7248    46.1207 </r>
       <r>    -4.8384    20.4382    48.1630 </r>
       <r>    -4.7384    25.8264    50.7436 </r>
       <r>    -4.6385    30.7944    53.8207 </r>
       <r>    -4.5386    35.0994    57.3279 </r>
       <r>    -4.4387    37.5564    61.0806 </r>
       <r>    -4.3388    38.5340    64.9310 </r>
       <r>    -4.2388    38.9759    68.8256 </r>
       <r>    -4.1389    38.9551    72.7181 </r>
       <r>    -4.0390    39.9751    76.7125 </r>
       <r>    -3.9391    42.3152    80.9407 </r>
       <r>    -3.8391    40.6177    84.9993 </r>
       <r>    -3.7392    31.0093    88.0979 </r>
       <r>    -3.6393    20.9730    90.1935 </r>
       <r>    -3.5394    18.6249    92.0546 </r>
       <r>    -3.4395    22.2414    94.2770 </r>
       <r>    -3.3395    25.6709    96.8421 </r>
       <r>    -3.2396    23.7411    99.2144 </r>
       <r>    -3.1397    19.1585   101.1287 </r>
       <r>    -3.0398    18.8537   103.0126 </r>
       <r>    -2.9398    22.1915   105.2301 </r>
       <r>    -2.8399    25.7007   107.7982 </r>
       <r>    -2.7400    28.9062   110.6865 </r>
       <r>    -2.6401    29.9934   113.6835 </r>
       <r>    -2.5402    26.9607   116.3775 </r>
       <r>    -2.4402    22.5499   118.6308 </r>
       <r>    -2.3403    19.6753   120.5968 </r>
       <r>    -2.2404    16.5026   122.2457 </r>
       <r>    -2.1405    11.3327   123.3781 </r>
       <r>    -2.0405     6.1357   123.9912 </r>
       <r>    -1.9406     5.2082   124.5116 </r>
       <r>    -1.8407     7.2187   125.2330 </r>
       <r>    -1.7408     5.7377   125.8063 </r>
       <r>    -1.6409     2.9735   126.1034 </r>
       <r>    -1.5409     4.9655   126.5996 </r>
       <r>    -1.4410     7.8390   127.3829 </r>
       <r>    -1.3411     5.5614   127.9386 </r>
       <r>    -1.2412     1.3254   128.0710 </r>
       <r>    -1.1412    -0.3611   128.0349 </r>
       <r>    -1.0413    -0.2771   128.0072 </r>
       <r>    -0.9414    -0.0644   128.0008 </r>
       <r>    -0.8415    -0.0075   128.0001 </r>
       <r>    -0.7416    -0.0005   128.0000 </r>
       <r>    -0.6416    -0.0000   128.0000 </r>
       <r>    -0.5417    -0.0000   128.0000 </r>
       <r>    -0.4418    -0.0000   128.0000 </r>
       <r>    -0.3419    -0.0000   128.0000 </r>
       <r>    -0.2419    -0.0000   128.0000 </r>
       <r>    -0.1420    -0.0000   128.0000 </r>
       <r>    -0.0421    -0.0000   128.0000 </r>
       <r>     0.0578    -0.0000   128.0000 </r>
       <r>     0.1578    -0.0000   128.0000 </r>
       <r>     0.2577    -0.0005   128.0000 </r>
       <r>     0.3576    -0.0084   127.9991 </r>
       <r>     0.4575    -0.0911   127.9900 </r>
       <r>     0.5574    -0.5520   127.9349 </r>
       <r>     0.6574    -1.6727   127.7677 </r>
       <r>     0.7573    -1.0506   127.6627 </r>
       <r>     0.8572     8.8165   128.5437 </r>
       <r>     0.9571    31.4795   131.6892 </r>
       <r>     1.0571    54.4147   137.1265 </r>
       <r>     1.1570    62.5971   143.3813 </r>
       <r>     1.2569    60.1403   149.3907 </r>
       <r>     1.3568    59.6705   155.3531 </r>
       <r>     1.4567    63.9856   161.7467 </r>
       <r>     1.5567    65.8369   168.3253 </r>
       <r>     1.6566    55.5396   173.8749 </r>
       <r>     1.7565    36.6830   177.5404 </r>
       <r>     1.8564    25.9803   180.1364 </r>
       <r>     1.9564    29.7954   183.1137 </r>
       <r>     2.0563    36.1313   186.7240 </r>
       <r>     2.1562    32.0380   189.9253 </r>
       <r>     2.2561    19.1758   191.8414 </r>
       <r>     2.3560    11.6152   193.0020 </r>
       <r>     2.4560    12.8832   194.2893 </r>
       <r>     2.5559    11.1346   195.4019 </r>
       <r>     2.6558     5.4998   195.9515 </r>
       <r>     2.7557     8.1743   196.7683 </r>
       <r>     2.8557    20.7766   198.8443 </r>
       <r>     2.9556    29.9118   201.8332 </r>
       <r>     3.0555    26.3101   204.4622 </r>
       <r>     3.1554    16.6894   206.1298 </r>
       <r>     3.2553    10.5153   207.1805 </r>
       <r>     3.3553     6.6370   207.8437 </r>
       <r>     3.4552     2.3252   208.0760 </r>
       <r>     3.5551    -0.1790   208.0582 </r>
       <r>     3.6550    -0.4224   208.0160 </r>
       <r>     3.7550    -0.1369   208.0023 </r>
       <r>     3.8549    -0.0209   208.0002 </r>
       <r>     3.9548    -0.0017   208.0000 </r>
       <r>     4.0547    -0.0001   208.0000 </r>
       <r>     4.1547    -0.0000   208.0000 </r>
       <r>     4.2546    -0.0000   208.0000 </r>
       <r>     4.3545    -0.0000   208.0000 </r>
       <r>     4.4544    -0.0000   208.0000 </r>
       <r>     4.5543    -0.0000   208.0000 </r>
       <r>     4.6543     0.0000   208.0000 </r>
       <r>     4.7542     0.0000   208.0000 </r>
       <r>     4.8541     0.0000   208.0000 </r>
       <r>     4.9540     0.0000   208.0000 </r>
       <r>     5.0540     0.0000   208.0000 </r>
       <r>     5.1539     0.0000   208.0000 </r>
       <r>     5.2538     0.0000   208.0000 </r>
      </set>
     </set>
    </array>
   </total>
  </dos>
 </calculation>
 <structure name="finalpos" >
  <crystal>
   <varray name="basis" >
    <v>       5.73591900       0.00000000      -0.79026700 </v>
    <v>       0.00000000       4.76765000       0.00000000 </v>
    <v>       0.02984100       0.00000000      10.88396600 </v>
   </varray>
   <i name="volume">    297.75466397 </i>
   <varray name="rec_basis" >
    <v>       0.17427415       0.00000000      -0.00047781 </v>
    <v>       0.00000000       0.20974694       0.00000000 </v>
    <v>       0.01265376       0.00000000       0.09184358 </v>
   </varray>
  </crystal>
  <varray name="positions" >
   <v>       0.24699400       0.24850600       0.74623300 </v>
   <v>       0.24749200       0.74304200       0.25207300 </v>
   <v>       0.51485700       0.24497600       0.49879200 </v>
   <v>       0.51485700       0.75502400       0.99879200 </v>
   <v>       0.75373900       0.23127500       0.27381400 </v>
   <v>       0.75373900       0.76872500       0.76486200 </v>
   <v>       0.98683500       0.24137200       0.99652900 </v>
   <v>       0.99045900       0.75862800       0.49652900 </v>
   <v>       0.77857200       0.05199500       0.41725200 </v>
   <v>       0.77857200       0.94152200       0.92039600 </v>
   <v>       0.01370000       0.05755600       0.18278600 </v>
   <v>       0.01074200       0.94244400       0.68278600 </v>
   <v>       0.22224900       0.44944100       0.57080400 </v>
   <v>       0.22224900       0.55055900       0.07080400 </v>
   <v>       0.27923300       0.05174700       0.92203700 </v>
   <v>       0.27923300       0.94825300       0.42203700 </v>
   <v>       0.48187500       0.45353000       0.31584000 </v>
   <v>       0.48187500       0.54647000       0.82365100 </v>
   <v>       0.52253600       0.03560000       0.67416600 </v>
   <v>       0.52253600       0.96440000       0.17416600 </v>
   <v>       0.72235300       0.44302000       0.09109400 </v>
   <v>       0.72235300       0.55698000       0.59109400 </v>
   <v>       0.97343300       0.45650500       0.81960400 </v>
   <v>       0.97343300       0.54349500       0.31960400 </v>
  </varray>
 </structure>
</modeling>
