<?xml version="1.0" encoding="ISO-8859-1"?>
<modeling>
 <generator>
  <i name="program" type="string">vasp </i>
  <i name="version" type="string">5.3.5  </i>
  <i name="subversion" type="string">31Mar14 (build Aug 29 2014 19:41:47) complex                          parallel </i>
  <i name="platform" type="string">LinuxIFC </i>
  <i name="date" type="string">2019 04 11 </i>
  <i name="time" type="string">15:58:16 </i>
 </generator>
 <incar>
  <i type="string" name="SYSTEM"> Fe6OF11_var_15</i>
  <i type="int" name="ISTART">     0</i>
  <i type="string" name="PREC">normal</i>
  <i type="string" name="ALGO"> VeryFast</i>
  <i type="int" name="ISPIN">     1</i>
  <i type="int" name="ICHARG">     2</i>
  <i type="int" name="NELM">   300</i>
  <i type="int" name="ISYM">     0</i>
  <i type="logical" name="LWAVE"> F  </i>
  <i type="int" name="NELM">   300</i>
 </incar>
 <kpoints>
  <generation param="Gamma">
   <v type="int" name="divisions">       1        1        1 </v>
   <v name="usershift">      0.00000000       0.00000000       0.00000000 </v>
   <v name="genvec1">      1.00000000       0.00000000      -0.00000000 </v>
   <v name="genvec2">     -0.00000000       1.00000000      -0.00000000 </v>
   <v name="genvec3">      0.00000000       0.00000000       1.00000000 </v>
   <v name="shift">      0.00000000       0.00000000       0.00000000 </v>
  </generation>
  <varray name="kpointlist" >
   <v>       0.00000000       0.00000000       0.00000000 </v>
  </varray>
  <varray name="weights" >
   <v>       1.00000000 </v>
  </varray>
 </kpoints>
 <parameters>
  <separator name="general" >
   <i type="string" name="SYSTEM">Fe6OF11_var_15</i>
   <i type="logical" name="LCOMPAT"> F  </i>
  </separator>
  <separator name="electronic" >
   <i type="string" name="PREC">normal</i>
   <i name="ENMAX">    400.00000000</i>
   <i name="ENAUG">    613.61400000</i>
   <i name="EDIFF">      0.00010000</i>
   <i type="int" name="IALGO">    48</i>
   <i type="int" name="IWAVPR">    10</i>
   <i type="int" name="NBANDS">   160</i>
   <i name="NELECT">    262.00000000</i>
   <i type="int" name="TURBO">     0</i>
   <i type="int" name="IRESTART">     0</i>
   <i type="int" name="NREBOOT">     0</i>
   <i type="int" name="NMIN">     0</i>
   <i name="EREF">      0.00000000</i>
   <separator name="electronic smearing" >
    <i type="int" name="ISMEAR">     1</i>
    <i name="SIGMA">      0.20000000</i>
    <i name="KSPACING">      0.50000000</i>
    <i type="logical" name="KGAMMA"> T  </i>
   </separator>
   <separator name="electronic projectors" >
    <i type="logical" name="LREAL"> F  </i>
    <v name="ROPT">      0.00000000      0.00000000      0.00000000</v>
    <i type="int" name="LMAXPAW">  -100</i>
    <i type="int" name="LMAXMIX">     2</i>
    <i type="logical" name="NLSPLINE"> F  </i>
   </separator>
   <separator name="electronic startup" >
    <i type="int" name="ISTART">     0</i>
    <i type="int" name="ICHARG">     2</i>
    <i type="int" name="INIWAV">     1</i>
   </separator>
   <separator name="electronic spin" >
    <i type="int" name="ISPIN">     1</i>
    <i type="logical" name="LNONCOLLINEAR"> F  </i>
    <v name="MAGMOM">      1.00000000      1.00000000      1.00000000      1.00000000      1.00000000      1.00000000      1.00000000      1.00000000      1.00000000      1.00000000      1.00000000      1.00000000      1.00000000      1.00000000      1.00000000      1.00000000      1.00000000      1.00000000      1.00000000      1.00000000
      1.00000000      1.00000000      1.00000000      1.00000000      1.00000000      1.00000000      1.00000000      1.00000000      1.00000000      1.00000000      1.00000000      1.00000000      1.00000000      1.00000000      1.00000000      1.00000000</v>
    <i name="NUPDOWN">     -1.00000000</i>
    <i type="logical" name="LSORBIT"> F  </i>
    <v name="SAXIS">      0.00000000      0.00000000      1.00000000</v>
    <i type="logical" name="LSPIRAL"> F  </i>
    <v name="QSPIRAL">      0.00000000      0.00000000      0.00000000</v>
    <i type="logical" name="LZEROZ"> F  </i>
   </separator>
   <separator name="electronic exchange-correlation" >
    <i type="logical" name="LASPH"> F  </i>
    <i type="logical" name="LMETAGGA"> F  </i>
   </separator>
   <separator name="electronic convergence" >
    <i type="int" name="NELM">   300</i>
    <i type="int" name="NELMDL">   -12</i>
    <i type="int" name="NELMIN">     2</i>
    <i name="ENINI">    400.00000000</i>
    <separator name="electronic convergence detail" >
     <i type="logical" name="LDIAG"> T  </i>
     <i type="logical" name="LSUBROT"> F  </i>
     <i name="WEIMIN">      0.00000000</i>
     <i name="EBREAK">      0.00000016</i>
     <i name="DEPER">      0.30000000</i>
     <i type="int" name="NRMM">     4</i>
     <i name="TIME">      0.40000000</i>
    </separator>
   </separator>
   <separator name="electronic mixer" >
    <i name="AMIX">      0.40000000</i>
    <i name="BMIX">      1.00000000</i>
    <i name="AMIN">      0.10000000</i>
    <i name="AMIX_MAG">      1.60000000</i>
    <i name="BMIX_MAG">      1.00000000</i>
    <separator name="electronic mixer details" >
     <i type="int" name="IMIX">     4</i>
     <i type="int" name="MAXMIX">   -45</i>
     <i name="WC">    100.00000000</i>
     <i type="int" name="INIMIX">     1</i>
     <i type="int" name="MIXPRE">     1</i>
     <i type="int" name="MREMOVE">     5</i>
    </separator>
   </separator>
   <separator name="electronic dipolcorrection" >
    <i type="logical" name="LDIPOL"> F  </i>
    <i type="logical" name="LMONO"> F  </i>
    <i type="int" name="IDIPOL">     0</i>
    <i name="EPSILON">      1.00000000</i>
    <v name="DIPOL">   -100.00000000   -100.00000000   -100.00000000</v>
    <i name="EFIELD">      0.00000000</i>
   </separator>
  </separator>
  <separator name="grids" >
   <i type="int" name="NGX">    16</i>
   <i type="int" name="NGY">   108</i>
   <i type="int" name="NGZ">    36</i>
   <i type="int" name="NGXF">    32</i>
   <i type="int" name="NGYF">   216</i>
   <i type="int" name="NGZF">    72</i>
   <i type="logical" name="ADDGRID"> F  </i>
  </separator>
  <separator name="ionic" >
   <i type="int" name="NSW">     0</i>
   <i type="int" name="IBRION">    -1</i>
   <i type="int" name="ISIF">     2</i>
   <i name="PSTRESS">      0.00000000</i>
   <i name="EDIFFG">      0.00100000</i>
   <i type="int" name="NFREE">     0</i>
   <i name="POTIM">      0.50000000</i>
   <i name="SMASS">     -3.00000000</i>
   <i name="SCALEE">      1.00000000</i>
  </separator>
  <separator name="ionic md" >
   <i name="TEBEG">      0.00010000</i>
   <i name="TEEND">      0.00010000</i>
   <i type="int" name="NBLOCK">     1</i>
   <i type="int" name="KBLOCK">     1</i>
   <i type="int" name="NPACO">   256</i>
   <i name="APACO">     16.00000000</i>
  </separator>
  <separator name="symmetry" >
   <i type="int" name="ISYM">     0</i>
   <i name="SYMPREC">      0.00001000</i>
  </separator>
  <separator name="dos" >
   <i type="logical" name="LORBIT"> F  </i>
   <v name="RWIGS">     -1.00000000     -1.00000000     -1.00000000</v>
   <i type="int" name="NEDOS">   301</i>
   <i name="EMIN">     10.00000000</i>
   <i name="EMAX">    -10.00000000</i>
   <i name="EFERMI">      0.00000000</i>
  </separator>
  <separator name="writing" >
   <i type="int" name="NWRITE">     2</i>
   <i type="logical" name="LWAVE"> F  </i>
   <i type="logical" name="LCHARG"> T  </i>
   <i type="logical" name="LPARD"> F  </i>
   <i type="logical" name="LVTOT"> F  </i>
   <i type="logical" name="LVHAR"> F  </i>
   <i type="logical" name="LELF"> F  </i>
   <i type="logical" name="LOPTICS"> F  </i>
   <v name="STM">      0.00000000      0.00000000      0.00000000      0.00000000      0.00000000      0.00000000      0.00000000</v>
  </separator>
  <separator name="performance" >
   <i type="int" name="NPAR">     4</i>
   <i type="int" name="NSIM">     4</i>
   <i type="int" name="NBLK">    -1</i>
   <i type="logical" name="LPLANE"> T  </i>
   <i type="logical" name="LSCALAPACK"> T  </i>
   <i type="logical" name="LSCAAWARE"> F  </i>
   <i type="logical" name="LSCALU"> F  </i>
   <i type="logical" name="LASYNC"> F  </i>
   <i type="logical" name="LORBITALREAL"> F  </i>
  </separator>
  <separator name="miscellaneous" >
   <i type="int" name="IDIOT">     3</i>
   <i type="logical" name="LMUSIC"> F  </i>
   <v name="POMASS">     55.84700000     16.00000000     18.99800000</v>
   <v name="DARWINR">      0.00000000      0.00000000      0.00000000</v>
   <v name="DARWINV">      1.00000000      1.00000000      1.00000000</v>
   <i type="logical" name="LCORR"> T  </i>
  </separator>
  <i type="logical" name="GGA_COMPAT"> T  </i>
  <i type="logical" name="LBERRY"> F  </i>
  <i type="int" name="ICORELEVEL">     0</i>
  <i type="logical" name="LDAU"> F  </i>
  <i type="int" name="I_CONSTRAINED_M">     0</i>
  <separator name="electronic exchange-correlation" >
   <i type="string" name="GGA">--</i>
   <i type="int" name="VOSKOWN">     0</i>
   <i type="logical" name="LHFCALC"> F  </i>
   <i type="string" name="PRECFOCK"></i>
   <i type="logical" name="LSYMGRAD"> F  </i>
   <i type="logical" name="LHFONE"> F  </i>
   <i type="logical" name="LRHFCALC"> F  </i>
   <i type="logical" name="LTHOMAS"> F  </i>
   <i type="logical" name="LMODELHF"> F  </i>
   <i name="ENCUT4O">     -1.00000000</i>
   <i type="int" name="EXXOEP">     0</i>
   <i type="int" name="FOURORBIT">     0</i>
   <i name="AEXX">      0.00000000</i>
   <i name="HFALPHA">      0.00000000</i>
   <i name="MCALPHA">      0.00000000</i>
   <i name="ALDAX">      1.00000000</i>
   <i name="AGGAX">      1.00000000</i>
   <i name="ALDAC">      1.00000000</i>
   <i name="AGGAC">      1.00000000</i>
   <i type="int" name="NKREDX">     1</i>
   <i type="int" name="NKREDY">     1</i>
   <i type="int" name="NKREDZ">     1</i>
   <i type="logical" name="SHIFTRED"> F  </i>
   <i type="logical" name="ODDONLY"> F  </i>
   <i type="logical" name="EVENONLY"> F  </i>
   <i type="int" name="LMAXFOCK">     0</i>
   <i type="int" name="NMAXFOCKAE">     0</i>
   <i type="logical" name="LFOCKAEDFT"> F  </i>
   <i name="HFSCREEN">      0.00000000</i>
   <i name="HFSCREENC">      0.00000000</i>
   <i type="int" name="NBANDSGWLOW">     0</i>
  </separator>
  <separator name="vdW DFT" >
   <i type="logical" name="LUSE_VDW"> F  </i>
   <i name="Zab_VDW">     -0.84910000</i>
   <i name="PARAM1">      0.12340000</i>
   <i name="PARAM2">      1.00000000</i>
   <i name="PARAM3">      0.00000000</i>
  </separator>
  <separator name="model GW" >
   <i type="int" name="MODEL_GW">     0</i>
   <i name="MODEL_EPS0">      7.56646665</i>
   <i name="MODEL_ALPHA">      1.00000000</i>
  </separator>
  <separator name="linear response parameters" >
   <i type="logical" name="LEPSILON"> F  </i>
   <i type="logical" name="LRPA"> F  </i>
   <i type="logical" name="LNABLA"> F  </i>
   <i type="logical" name="LVEL"> F  </i>
   <i type="int" name="KINTER">     0</i>
   <i name="CSHIFT">      0.10000000</i>
   <i name="OMEGAMAX">     -1.00000000</i>
   <i name="DEG_THRESHOLD">      0.00200000</i>
  </separator>
  <separator name="orbital magnetization" >
   <i type="logical" name="NUCIND"> F  </i>
   <v name="MAGPOS">      0.00000000      0.00000000      0.00000000</v>
   <i type="logical" name="LNICSALL"> T  </i>
   <i type="logical" name="ORBITALMAG"> F  </i>
   <i type="logical" name="LMAGBLOCH"> F  </i>
   <i type="logical" name="LCHIMAG"> F  </i>
   <i type="logical" name="LGAUGE"> T  </i>
   <i type="int" name="MAGATOM">     0</i>
   <v name="MAGDIPOL">      0.00000000      0.00000000      0.00000000</v>
   <v name="AVECCONST">      0.00000000      0.00000000      0.00000000</v>
  </separator>
  <separator name="response functions" >
   <i type="logical" name="LADDER"> F  </i>
   <i type="logical" name="LFXC"> F  </i>
   <i type="logical" name="LHARTREE"> T  </i>
   <i type="int" name="IBSE">     0</i>
   <i type="logical" name="LTCTE"> F  </i>
   <i type="logical" name="LTETE"> F  </i>
   <i type="logical" name="LTRIPLET"> F  </i>
   <i type="logical" name="LFXCEPS"> F  </i>
   <i type="logical" name="LFXHEG"> F  </i>
   <i type="logical" name="L2ORDER"> F  </i>
   <i type="logical" name="LUSEW"> F  </i>
   <i name="ENCUTGW">     -2.00000000</i>
   <i name="ENCUTGWSOFT">     -2.00000000</i>
   <i name="ENCUTLF">     -1.00000000</i>
   <i type="int" name="LMAXMP2">    -1</i>
   <i name="SCISSOR">      0.00000000</i>
   <i type="int" name="NOMEGA">     0</i>
   <i type="int" name="NOMEGAR">     0</i>
   <i type="int" name="NBANDSGW">    -1</i>
   <i type="int" name="NBANDSO">    -1</i>
   <i type="int" name="NBANDSV">    -1</i>
   <i type="int" name="NELM">   300</i>
   <i type="int" name="DIM">     3</i>
   <i type="int" name="ANTIRES">     0</i>
   <i name="OMEGAMAX">    -30.00000000</i>
   <i name="OMEGAMIN">    -30.00000000</i>
   <i name="OMEGATL">   -200.00000000</i>
   <i type="int" name="OMEGAGRID">     0</i>
   <i name="CSHIFT">     -0.10000000</i>
   <i type="logical" name="SELFENERGY"> F  </i>
   <i type="logical" name="LSPECTRAL"> F  </i>
   <i type="logical" name="ODDONLYGW"> F  </i>
   <i type="logical" name="EVENONLYGW"> F  </i>
   <i type="int" name="NKREDLFX">     1</i>
   <i type="int" name="NKREDLFY">     1</i>
   <i type="int" name="NKREDLFZ">     1</i>
   <i type="int" name="MAXMEM">  1800</i>
   <i type="int" name="TELESCOPE">     0</i>
   <i type="int" name="TAUPAR">     1</i>
  </separator>
  <separator name="External order field" >
   <i name="OFIELD_KAPPA">      0.00000000</i>
   <v name="OFIELD_K">      0.00000000      0.00000000      0.00000000</v>
   <i name="OFIELD_Q6_NEAR">      0.00000000</i>
   <i name="OFIELD_Q6_FAR">      0.00000000</i>
   <i name="OFIELD_A">      0.00000000</i>
  </separator>
 </parameters>
 <atominfo>
  <atoms>      36 </atoms>
  <types>       3 </types>
  <array name="atoms" >
   <dimension dim="1">ion</dimension>
   <field type="string">element</field>
   <field type="int">atomtype</field>
   <set>
    <rc><c>Fe</c><c>   1</c></rc>
    <rc><c>Fe</c><c>   1</c></rc>
    <rc><c>Fe</c><c>   1</c></rc>
    <rc><c>Fe</c><c>   1</c></rc>
    <rc><c>Fe</c><c>   1</c></rc>
    <rc><c>Fe</c><c>   1</c></rc>
    <rc><c>Fe</c><c>   1</c></rc>
    <rc><c>Fe</c><c>   1</c></rc>
    <rc><c>Fe</c><c>   1</c></rc>
    <rc><c>Fe</c><c>   1</c></rc>
    <rc><c>Fe</c><c>   1</c></rc>
    <rc><c>Fe</c><c>   1</c></rc>
    <rc><c>O </c><c>   2</c></rc>
    <rc><c>O </c><c>   2</c></rc>
    <rc><c>F </c><c>   3</c></rc>
    <rc><c>F </c><c>   3</c></rc>
    <rc><c>F </c><c>   3</c></rc>
    <rc><c>F </c><c>   3</c></rc>
    <rc><c>F </c><c>   3</c></rc>
    <rc><c>F </c><c>   3</c></rc>
    <rc><c>F </c><c>   3</c></rc>
    <rc><c>F </c><c>   3</c></rc>
    <rc><c>F </c><c>   3</c></rc>
    <rc><c>F </c><c>   3</c></rc>
    <rc><c>F </c><c>   3</c></rc>
    <rc><c>F </c><c>   3</c></rc>
    <rc><c>F </c><c>   3</c></rc>
    <rc><c>F </c><c>   3</c></rc>
    <rc><c>F </c><c>   3</c></rc>
    <rc><c>F </c><c>   3</c></rc>
    <rc><c>F </c><c>   3</c></rc>
    <rc><c>F </c><c>   3</c></rc>
    <rc><c>F </c><c>   3</c></rc>
    <rc><c>F </c><c>   3</c></rc>
    <rc><c>F </c><c>   3</c></rc>
    <rc><c>F </c><c>   3</c></rc>
   </set>
  </array>
  <array name="atomtypes" >
   <dimension dim="1">type</dimension>
   <field type="int">atomspertype</field>
   <field type="string">element</field>
   <field>mass</field>
   <field>valence</field>
   <field type="string">pseudopotential</field>
   <set>
    <rc><c>  12</c><c>Fe</c><c>     55.84700000</c><c>      8.00000000</c><c>  PAW_PBE Fe 06Sep2000                  </c></rc>
    <rc><c>   2</c><c>O </c><c>     16.00000000</c><c>      6.00000000</c><c>  PAW_PBE O 08Apr2002                   </c></rc>
    <rc><c>  22</c><c>F </c><c>     18.99800000</c><c>      7.00000000</c><c>  PAW_PBE F 08Apr2002                   </c></rc>
   </set>
  </array>
 </atominfo>
 <structure name="initialpos" >
  <crystal>
   <varray name="basis" >
    <v>       3.25262800       0.00072800       0.00000000 </v>
    <v>       0.00000000      20.54938400       0.00000000 </v>
    <v>       0.01583100       0.00000000       6.79221100 </v>
   </varray>
   <i name="volume">    453.98799923 </i>
   <varray name="rec_basis" >
    <v>       0.30744370       0.00000000      -0.00071658 </v>
    <v>      -0.00001089       0.04866326       0.00000003 </v>
    <v>       0.00000000       0.00000000       0.14722746 </v>
   </varray>
  </crystal>
  <varray name="positions" >
   <v>       0.00000000       0.17596300       0.50139100 </v>
   <v>       0.00000000       0.83328100       0.50139100 </v>
   <v>       0.00000000       0.66671900       0.00139100 </v>
   <v>       0.00000000       0.33328100       0.00139100 </v>
   <v>       0.50000000       0.16602100       0.00000400 </v>
   <v>       0.50000000       0.83397900       0.00000400 </v>
   <v>       0.50000000       0.66602100       0.50000400 </v>
   <v>       0.50000000       0.33397900       0.50000400 </v>
   <v>       0.00000000       0.00000000       0.01216200 </v>
   <v>       0.99604900       0.50000000       0.51216200 </v>
   <v>       0.50000000       0.00000000       0.47240000 </v>
   <v>       0.50000000       0.50000000       0.97240000 </v>
   <v>       0.00930200       0.00000000       0.31436200 </v>
   <v>       0.00000000       0.50000000       0.81436200 </v>
   <v>       0.00000000       0.16816900       0.20381000 </v>
   <v>       0.00000000       0.83183100       0.20329900 </v>
   <v>       0.00000000       0.66816900       0.70329900 </v>
   <v>       0.00000000       0.33183100       0.70329900 </v>
   <v>       0.00000000       0.16838200       0.79934600 </v>
   <v>       0.00000000       0.83161800       0.79934600 </v>
   <v>       0.00000000       0.66838200       0.29934600 </v>
   <v>       0.00000000       0.33161800       0.29934600 </v>
   <v>       0.50000000       0.06837200       0.99633700 </v>
   <v>       0.50000000       0.93162800       0.99633700 </v>
   <v>       0.50000000       0.56837200       0.49633700 </v>
   <v>       0.50000000       0.43162800       0.49633700 </v>
   <v>       0.50000000       0.10536800       0.50567900 </v>
   <v>       0.50000000       0.90181600       0.50567900 </v>
   <v>       0.50000000       0.59818400       0.00567900 </v>
   <v>       0.50000000       0.40181600       0.00567900 </v>
   <v>       0.50000000       0.23406000       0.50152500 </v>
   <v>       0.50000000       0.76594000       0.50152500 </v>
   <v>       0.50000000       0.73406000       0.00152500 </v>
   <v>       0.50000000       0.26594000       0.00152500 </v>
   <v>       0.99406900       0.00000000       0.69474100 </v>
   <v>       0.00000000       0.50000000       0.19474100 </v>
  </varray>
 </structure>
 <calculation>
  <scstep>
   <time name="diag">    0.31    0.38</time>
   <time name="diis">    0.41    0.56</time>
   <time name="orth">    0.06    0.11</time>
   <time name="total">    0.95    1.38</time>
   <energy>
    <i name="alphaZ">    943.57652748 </i>
    <i name="ewald"> -15973.62990520 </i>
    <i name="hartreedc">  -6710.52421642 </i>
    <i name="XCdc">    902.26575447 </i>
    <i name="pawpsdc">  19213.82102697 </i>
    <i name="pawaedc"> -19422.08171028 </i>
    <i name="eentropy">      0.10803375 </i>
    <i name="bandstr">   1832.34209023 </i>
    <i name="atom">  22504.09828397 </i>
    <i name="e_fr_energy">   3289.97588497 </i>
    <i name="e_wo_entrp">   3289.86785121 </i>
    <i name="e_0_energy">   3289.93987372 </i>
   </energy>
  </scstep>
  <scstep>
   <time name="diag">    0.30    0.38</time>
   <time name="diis">    0.57    0.57</time>
   <time name="orth">    0.05    0.06</time>
   <time name="total">    0.92    1.00</time>
   <energy>
    <i name="e_fr_energy">   1032.06977032 </i>
    <i name="e_wo_entrp">   1032.08189207 </i>
    <i name="e_0_energy">   1032.07381090 </i>
   </energy>
  </scstep>
  <scstep>
   <time name="diag">    0.17    0.17</time>
   <time name="diis">    0.47    0.47</time>
   <time name="orth">    0.12    0.12</time>
   <time name="total">    0.76    0.76</time>
   <energy>
    <i name="e_fr_energy">    342.12377805 </i>
    <i name="e_wo_entrp">    342.11838920 </i>
    <i name="e_0_energy">    342.12198177 </i>
   </energy>
  </scstep>
  <scstep>
   <time name="diag">    0.24    0.25</time>
   <time name="diis">    0.44    0.53</time>
   <time name="orth">    0.10    0.14</time>
   <time name="total">    0.78    0.92</time>
   <energy>
    <i name="e_fr_energy">     59.79772350 </i>
    <i name="e_wo_entrp">     59.84014154 </i>
    <i name="e_0_energy">     59.81186285 </i>
   </energy>
  </scstep>
  <scstep>
   <time name="diag">    0.27    0.39</time>
   <time name="diis">    0.36    0.50</time>
   <time name="orth">    0.06    0.07</time>
   <time name="total">    0.68    0.96</time>
   <energy>
    <i name="e_fr_energy">    -91.89482204 </i>
    <i name="e_wo_entrp">    -91.93296921 </i>
    <i name="e_0_energy">    -91.90753776 </i>
   </energy>
  </scstep>
  <scstep>
   <time name="diag">    0.20    0.32</time>
   <time name="diis">    0.39    0.52</time>
   <time name="orth">    0.06    0.12</time>
   <time name="total">    0.64    0.97</time>
   <energy>
    <i name="e_fr_energy">   -159.32014884 </i>
    <i name="e_wo_entrp">   -159.37388610 </i>
    <i name="e_0_energy">   -159.33806126 </i>
   </energy>
  </scstep>
  <scstep>
   <time name="diag">    0.21    0.23</time>
   <time name="diis">    0.44    0.52</time>
   <time name="orth">    0.08    0.10</time>
   <time name="total">    0.73    0.86</time>
   <energy>
    <i name="e_fr_energy">   -193.38016204 </i>
    <i name="e_wo_entrp">   -193.49488754 </i>
    <i name="e_0_energy">   -193.41840388 </i>
   </energy>
  </scstep>
  <scstep>
   <time name="diag">    0.21    0.25</time>
   <time name="diis">    0.36    0.49</time>
   <time name="orth">    0.05    0.10</time>
   <time name="total">    0.61    0.84</time>
   <energy>
    <i name="e_fr_energy">   -207.23632057 </i>
    <i name="e_wo_entrp">   -207.41605755 </i>
    <i name="e_0_energy">   -207.29623289 </i>
   </energy>
  </scstep>
  <scstep>
   <time name="diag">    0.17    0.20</time>
   <time name="diis">    1.45    1.60</time>
   <time name="orth">    0.03    0.03</time>
   <time name="total">    1.66    1.85</time>
   <energy>
    <i name="e_fr_energy">   -221.88065935 </i>
    <i name="e_wo_entrp">   -222.11965415 </i>
    <i name="e_0_energy">   -221.96032428 </i>
   </energy>
  </scstep>
  <scstep>
   <time name="diag">    0.20    0.26</time>
   <time name="diis">    1.19    1.47</time>
   <time name="orth">    0.08    0.09</time>
   <time name="total">    1.48    1.82</time>
   <energy>
    <i name="e_fr_energy">   -222.11535489 </i>
    <i name="e_wo_entrp">   -222.31161138 </i>
    <i name="e_0_energy">   -222.18077372 </i>
   </energy>
  </scstep>
  <scstep>
   <time name="diag">    0.25    0.30</time>
   <time name="diis">    1.08    1.41</time>
   <time name="orth">    0.06    0.09</time>
   <time name="total">    1.41    1.81</time>
   <energy>
    <i name="e_fr_energy">   -222.46555139 </i>
    <i name="e_wo_entrp">   -222.59792584 </i>
    <i name="e_0_energy">   -222.50967621 </i>
   </energy>
  </scstep>
  <scstep>
   <time name="diag">    0.22    0.24</time>
   <time name="diis">    0.95    1.23</time>
   <time name="orth">    0.02    0.04</time>
   <time name="total">    1.33    1.75</time>
   <energy>
    <i name="e_fr_energy">   -222.63452314 </i>
    <i name="e_wo_entrp">   -222.75750455 </i>
    <i name="e_0_energy">   -222.67551694 </i>
   </energy>
  </scstep>
  <scstep>
   <time name="diag">    0.17    0.20</time>
   <time name="diis">    0.92    1.09</time>
   <time name="orth">    0.26    0.29</time>
   <time name="total">    1.63    1.93</time>
   <energy>
    <i name="e_fr_energy">   -208.43734597 </i>
    <i name="e_wo_entrp">   -208.44564401 </i>
    <i name="e_0_energy">   -208.44011198 </i>
   </energy>
  </scstep>
  <scstep>
   <time name="diag">    0.36    0.43</time>
   <time name="diis">    0.81    1.10</time>
   <time name="orth">    0.08    0.08</time>
   <time name="total">    1.44    1.83</time>
   <energy>
    <i name="e_fr_energy">   -264.18619795 </i>
    <i name="e_wo_entrp">   -264.17493245 </i>
    <i name="e_0_energy">   -264.18244279 </i>
   </energy>
  </scstep>
  <scstep>
   <time name="diag">    0.18    0.18</time>
   <time name="diis">    1.00    1.00</time>
   <time name="orth">    0.04    0.04</time>
   <time name="total">    1.46    1.46</time>
   <energy>
    <i name="e_fr_energy">   -264.27927499 </i>
    <i name="e_wo_entrp">   -264.22892958 </i>
    <i name="e_0_energy">   -264.26249319 </i>
   </energy>
  </scstep>
  <scstep>
   <time name="diag">    0.11    0.14</time>
   <time name="diis">    0.91    1.04</time>
   <time name="orth">    0.04    0.04</time>
   <time name="total">    1.50    1.68</time>
   <energy>
    <i name="e_fr_energy">   -212.66163785 </i>
    <i name="e_wo_entrp">   -212.57067765 </i>
    <i name="e_0_energy">   -212.63131778 </i>
   </energy>
  </scstep>
  <scstep>
   <time name="diag">    0.16    0.21</time>
   <time name="diis">    0.80    1.00</time>
   <time name="orth">    0.06    0.07</time>
   <time name="total">    1.23    1.56</time>
   <energy>
    <i name="e_fr_energy">   -235.13905607 </i>
    <i name="e_wo_entrp">   -235.20647003 </i>
    <i name="e_0_energy">   -235.16152739 </i>
   </energy>
  </scstep>
  <scstep>
   <time name="diag">    0.22    0.25</time>
   <time name="diis">    0.97    1.02</time>
   <time name="orth">    0.04    0.04</time>
   <time name="total">    1.39    1.54</time>
   <energy>
    <i name="e_fr_energy">   -251.57853478 </i>
    <i name="e_wo_entrp">   -251.46329949 </i>
    <i name="e_0_energy">   -251.54012301 </i>
   </energy>
  </scstep>
  <scstep>
   <time name="diag">    0.27    0.28</time>
   <time name="diis">    0.96    0.97</time>
   <time name="orth">    0.04    0.04</time>
   <time name="total">    1.58    1.61</time>
   <energy>
    <i name="e_fr_energy">   -224.77931803 </i>
    <i name="e_wo_entrp">   -224.68609139 </i>
    <i name="e_0_energy">   -224.74824248 </i>
   </energy>
  </scstep>
  <scstep>
   <time name="diag">    0.22    0.22</time>
   <time name="diis">    0.97    0.97</time>
   <time name="orth">    0.13    0.13</time>
   <time name="total">    1.72    1.72</time>
   <energy>
    <i name="e_fr_energy">   -209.33667568 </i>
    <i name="e_wo_entrp">   -209.33135046 </i>
    <i name="e_0_energy">   -209.33490061 </i>
   </energy>
  </scstep>
  <scstep>
   <time name="diag">    0.30    0.30</time>
   <time name="diis">    1.01    1.01</time>
   <time name="orth">    0.03    0.03</time>
   <time name="total">    1.64    1.64</time>
   <energy>
    <i name="e_fr_energy">   -215.09743345 </i>
    <i name="e_wo_entrp">   -215.12993092 </i>
    <i name="e_0_energy">   -215.10826594 </i>
   </energy>
  </scstep>
  <scstep>
   <time name="diag">    0.31    0.31</time>
   <time name="diis">    1.11    1.11</time>
   <time name="orth">    0.05    0.05</time>
   <time name="total">    1.73    1.73</time>
   <energy>
    <i name="e_fr_energy">   -225.97287232 </i>
    <i name="e_wo_entrp">   -226.02326317 </i>
    <i name="e_0_energy">   -225.98966927 </i>
   </energy>
  </scstep>
  <scstep>
   <time name="diag">    0.22    0.22</time>
   <time name="diis">    0.87    0.87</time>
   <time name="orth">    0.05    0.05</time>
   <time name="total">    1.31    1.31</time>
   <energy>
    <i name="e_fr_energy">   -209.14760672 </i>
    <i name="e_wo_entrp">   -209.14908250 </i>
    <i name="e_0_energy">   -209.14809865 </i>
   </energy>
  </scstep>
  <scstep>
   <time name="diag">    0.42    0.42</time>
   <time name="diis">    1.12    1.12</time>
   <time name="orth">    0.31    0.32</time>
   <time name="total">    2.06    2.07</time>
   <energy>
    <i name="e_fr_energy">   -205.73686267 </i>
    <i name="e_wo_entrp">   -205.62055369 </i>
    <i name="e_0_energy">   -205.69809301 </i>
   </energy>
  </scstep>
  <scstep>
   <time name="diag">    0.19    0.20</time>
   <time name="diis">    1.03    1.03</time>
   <time name="orth">    0.06    0.06</time>
   <time name="total">    1.55    1.55</time>
   <energy>
    <i name="e_fr_energy">   -201.81911216 </i>
    <i name="e_wo_entrp">   -201.80726131 </i>
    <i name="e_0_energy">   -201.81516188 </i>
   </energy>
  </scstep>
  <scstep>
   <time name="diag">    0.21    0.21</time>
   <time name="diis">    1.19    1.19</time>
   <time name="orth">    0.06    0.06</time>
   <time name="total">    1.68    1.68</time>
   <energy>
    <i name="e_fr_energy">   -193.64054125 </i>
    <i name="e_wo_entrp">   -193.67349227 </i>
    <i name="e_0_energy">   -193.65152492 </i>
   </energy>
  </scstep>
  <scstep>
   <time name="diag">    0.25    0.25</time>
   <time name="diis">    0.97    0.97</time>
   <time name="orth">    0.04    0.04</time>
   <time name="total">    1.56    1.56</time>
   <energy>
    <i name="e_fr_energy">   -193.40794321 </i>
    <i name="e_wo_entrp">   -193.58978362 </i>
    <i name="e_0_energy">   -193.46855668 </i>
   </energy>
  </scstep>
  <scstep>
   <time name="diag">    0.44    0.44</time>
   <time name="diis">    1.26    1.26</time>
   <time name="orth">    0.08    0.08</time>
   <time name="total">    2.06    2.06</time>
   <energy>
    <i name="e_fr_energy">   -191.12255311 </i>
    <i name="e_wo_entrp">   -191.14203316 </i>
    <i name="e_0_energy">   -191.12904646 </i>
   </energy>
  </scstep>
  <scstep>
   <time name="diag">    0.38    0.38</time>
   <time name="diis">    0.90    1.00</time>
   <time name="orth">    0.10    0.21</time>
   <time name="total">    1.65    2.01</time>
   <energy>
    <i name="e_fr_energy">   -190.43744002 </i>
    <i name="e_wo_entrp">   -190.43653238 </i>
    <i name="e_0_energy">   -190.43713747 </i>
   </energy>
  </scstep>
  <scstep>
   <time name="diag">    0.40    0.80</time>
   <time name="diis">    0.75    1.08</time>
   <time name="orth">    0.05    0.06</time>
   <time name="total">    1.30    2.15</time>
   <energy>
    <i name="e_fr_energy">   -189.95751498 </i>
    <i name="e_wo_entrp">   -189.96856547 </i>
    <i name="e_0_energy">   -189.96119847 </i>
   </energy>
  </scstep>
  <scstep>
   <time name="diag">    0.13    0.17</time>
   <time name="diis">    0.97    1.03</time>
   <time name="orth">    0.04    0.05</time>
   <time name="total">    1.32    1.53</time>
   <energy>
    <i name="e_fr_energy">   -189.90802937 </i>
    <i name="e_wo_entrp">   -189.90459962 </i>
    <i name="e_0_energy">   -189.90688612 </i>
   </energy>
  </scstep>
  <scstep>
   <time name="diag">    0.20    0.20</time>
   <time name="diis">    1.05    1.05</time>
   <time name="orth">    0.13    0.14</time>
   <time name="total">    1.62    1.62</time>
   <energy>
    <i name="e_fr_energy">   -189.74587773 </i>
    <i name="e_wo_entrp">   -189.77142163 </i>
    <i name="e_0_energy">   -189.75439236 </i>
   </energy>
  </scstep>
  <scstep>
   <time name="diag">    0.47    0.47</time>
   <time name="diis">    1.03    1.06</time>
   <time name="orth">    0.03    0.04</time>
   <time name="total">    1.85    1.89</time>
   <energy>
    <i name="e_fr_energy">   -189.59604347 </i>
    <i name="e_wo_entrp">   -189.57847880 </i>
    <i name="e_0_energy">   -189.59018858 </i>
   </energy>
  </scstep>
  <scstep>
   <time name="diag">    0.25    0.25</time>
   <time name="diis">    1.38    1.38</time>
   <time name="orth">    0.16    0.16</time>
   <time name="total">    2.08    2.12</time>
   <energy>
    <i name="e_fr_energy">   -189.47993801 </i>
    <i name="e_wo_entrp">   -189.46600977 </i>
    <i name="e_0_energy">   -189.47529527 </i>
   </energy>
  </scstep>
  <scstep>
   <time name="diag">    0.17    0.18</time>
   <time name="diis">    1.09    1.09</time>
   <time name="orth">    0.11    0.11</time>
   <time name="total">    1.62    1.63</time>
   <energy>
    <i name="e_fr_energy">   -189.34355328 </i>
    <i name="e_wo_entrp">   -189.28464334 </i>
    <i name="e_0_energy">   -189.32391663 </i>
   </energy>
  </scstep>
  <scstep>
   <time name="diag">    0.12    0.12</time>
   <time name="diis">    1.13    1.13</time>
   <time name="orth">    0.04    0.05</time>
   <time name="total">    1.62    1.63</time>
   <energy>
    <i name="e_fr_energy">   -189.32746719 </i>
    <i name="e_wo_entrp">   -189.30002231 </i>
    <i name="e_0_energy">   -189.31831890 </i>
   </energy>
  </scstep>
  <scstep>
   <time name="diag">    0.29    0.29</time>
   <time name="diis">    1.04    1.04</time>
   <time name="orth">    0.04    0.04</time>
   <time name="total">    1.81    1.81</time>
   <energy>
    <i name="e_fr_energy">   -189.38918075 </i>
    <i name="e_wo_entrp">   -189.35152559 </i>
    <i name="e_0_energy">   -189.37662903 </i>
   </energy>
  </scstep>
  <scstep>
   <time name="diag">    0.29    0.29</time>
   <time name="diis">    1.03    1.03</time>
   <time name="orth">    0.06    0.06</time>
   <time name="total">    1.68    1.68</time>
   <energy>
    <i name="e_fr_energy">   -189.29918483 </i>
    <i name="e_wo_entrp">   -189.27333040 </i>
    <i name="e_0_energy">   -189.29056668 </i>
   </energy>
  </scstep>
  <scstep>
   <time name="diag">    0.14    0.14</time>
   <time name="diis">    1.26    1.26</time>
   <time name="orth">    0.07    0.07</time>
   <time name="total">    1.93    1.94</time>
   <energy>
    <i name="e_fr_energy">   -189.31190537 </i>
    <i name="e_wo_entrp">   -189.26587422 </i>
    <i name="e_0_energy">   -189.29656166 </i>
   </energy>
  </scstep>
  <scstep>
   <time name="diag">    0.21    0.21</time>
   <time name="diis">    1.20    1.20</time>
   <time name="orth">    0.07    0.09</time>
   <time name="total">    1.68    1.70</time>
   <energy>
    <i name="e_fr_energy">   -189.29658158 </i>
    <i name="e_wo_entrp">   -189.27446406 </i>
    <i name="e_0_energy">   -189.28920908 </i>
   </energy>
  </scstep>
  <scstep>
   <time name="diag">    0.20    0.20</time>
   <time name="diis">    0.91    0.91</time>
   <time name="orth">    0.05    0.05</time>
   <time name="total">    1.42    1.42</time>
   <energy>
    <i name="e_fr_energy">   -189.28512437 </i>
    <i name="e_wo_entrp">   -189.24822300 </i>
    <i name="e_0_energy">   -189.27282391 </i>
   </energy>
  </scstep>
  <scstep>
   <time name="diag">    0.41    0.41</time>
   <time name="diis">    0.84    0.84</time>
   <time name="orth">    0.14    0.15</time>
   <time name="total">    1.72    1.72</time>
   <energy>
    <i name="e_fr_energy">   -189.27751277 </i>
    <i name="e_wo_entrp">   -189.24817519 </i>
    <i name="e_0_energy">   -189.26773357 </i>
   </energy>
  </scstep>
  <scstep>
   <time name="diag">    0.22    0.22</time>
   <time name="diis">    1.15    1.15</time>
   <time name="orth">    0.31    0.31</time>
   <time name="total">    2.19    2.19</time>
   <energy>
    <i name="e_fr_energy">   -189.27055626 </i>
    <i name="e_wo_entrp">   -189.23711937 </i>
    <i name="e_0_energy">   -189.25941063 </i>
   </energy>
  </scstep>
  <scstep>
   <time name="diag">    0.17    0.17</time>
   <time name="diis">    1.17    1.17</time>
   <time name="orth">    0.18    0.18</time>
   <time name="total">    1.72    1.72</time>
   <energy>
    <i name="e_fr_energy">   -189.26089070 </i>
    <i name="e_wo_entrp">   -189.23548169 </i>
    <i name="e_0_energy">   -189.25242103 </i>
   </energy>
  </scstep>
  <scstep>
   <time name="diag">    0.44    0.44</time>
   <time name="diis">    0.67    0.73</time>
   <time name="orth">    0.06    0.07</time>
   <time name="total">    1.42    1.52</time>
   <energy>
    <i name="e_fr_energy">   -189.26029551 </i>
    <i name="e_wo_entrp">   -189.23447427 </i>
    <i name="e_0_energy">   -189.25168843 </i>
   </energy>
  </scstep>
  <scstep>
   <time name="diag">    0.38    0.45</time>
   <time name="diis">    0.63    0.79</time>
   <time name="orth">    0.07    0.09</time>
   <time name="total">    1.38    1.66</time>
   <energy>
    <i name="e_fr_energy">   -189.25720755 </i>
    <i name="e_wo_entrp">   -189.23398959 </i>
    <i name="e_0_energy">   -189.24946823 </i>
   </energy>
  </scstep>
  <scstep>
   <time name="diag">    0.27    0.29</time>
   <time name="diis">    0.92    1.20</time>
   <time name="orth">    0.08    0.10</time>
   <time name="total">    1.57    1.94</time>
   <energy>
    <i name="e_fr_energy">   -189.25166402 </i>
    <i name="e_wo_entrp">   -189.23777041 </i>
    <i name="e_0_energy">   -189.24703282 </i>
   </energy>
  </scstep>
  <scstep>
   <time name="diag">    0.27    0.40</time>
   <time name="diis">    0.52    0.65</time>
   <time name="orth">    0.06    0.06</time>
   <time name="total">    0.99    1.27</time>
   <energy>
    <i name="alphaZ">    943.57652748 </i>
    <i name="ewald"> -15973.62990520 </i>
    <i name="hartreedc">  -6869.77520823 </i>
    <i name="XCdc">    918.59369099 </i>
    <i name="pawpsdc">  22440.75511727 </i>
    <i name="pawaedc"> -22651.40392972 </i>
    <i name="eentropy">     -0.01468550 </i>
    <i name="bandstr">  -1501.45146904 </i>
    <i name="atom">  22504.09828397 </i>
    <i name="e_fr_energy">   -189.25157798 </i>
    <i name="e_wo_entrp">   -189.23689248 </i>
    <i name="e_0_energy">   -189.24668281 </i>
   </energy>
  </scstep>
  <structure>
   <crystal>
    <varray name="basis" >
     <v>       3.25262800       0.00072800       0.00000000 </v>
     <v>       0.00000000      20.54938400       0.00000000 </v>
     <v>       0.01583100       0.00000000       6.79221100 </v>
    </varray>
    <i name="volume">    453.98799923 </i>
    <varray name="rec_basis" >
     <v>       0.30744370       0.00000000      -0.00071658 </v>
     <v>      -0.00001089       0.04866326       0.00000003 </v>
     <v>       0.00000000       0.00000000       0.14722746 </v>
    </varray>
   </crystal>
   <varray name="positions" >
    <v>       0.00000000       0.17596300       0.50139100 </v>
    <v>       0.00000000       0.83328100       0.50139100 </v>
    <v>       0.00000000       0.66671900       0.00139100 </v>
    <v>       0.00000000       0.33328100       0.00139100 </v>
    <v>       0.50000000       0.16602100       0.00000400 </v>
    <v>       0.50000000       0.83397900       0.00000400 </v>
    <v>       0.50000000       0.66602100       0.50000400 </v>
    <v>       0.50000000       0.33397900       0.50000400 </v>
    <v>       0.00000000       0.00000000       0.01216200 </v>
    <v>       0.99604900       0.50000000       0.51216200 </v>
    <v>       0.50000000       0.00000000       0.47240000 </v>
    <v>       0.50000000       0.50000000       0.97240000 </v>
    <v>       0.00930200       0.00000000       0.31436200 </v>
    <v>       0.00000000       0.50000000       0.81436200 </v>
    <v>       0.00000000       0.16816900       0.20381000 </v>
    <v>       0.00000000       0.83183100       0.20329900 </v>
    <v>       0.00000000       0.66816900       0.70329900 </v>
    <v>       0.00000000       0.33183100       0.70329900 </v>
    <v>       0.00000000       0.16838200       0.79934600 </v>
    <v>       0.00000000       0.83161800       0.79934600 </v>
    <v>       0.00000000       0.66838200       0.29934600 </v>
    <v>       0.00000000       0.33161800       0.29934600 </v>
    <v>       0.50000000       0.06837200       0.99633700 </v>
    <v>       0.50000000       0.93162800       0.99633700 </v>
    <v>       0.50000000       0.56837200       0.49633700 </v>
    <v>       0.50000000       0.43162800       0.49633700 </v>
    <v>       0.50000000       0.10536800       0.50567900 </v>
    <v>       0.50000000       0.90181600       0.50567900 </v>
    <v>       0.50000000       0.59818400       0.00567900 </v>
    <v>       0.50000000       0.40181600       0.00567900 </v>
    <v>       0.50000000       0.23406000       0.50152500 </v>
    <v>       0.50000000       0.76594000       0.50152500 </v>
    <v>       0.50000000       0.73406000       0.00152500 </v>
    <v>       0.50000000       0.26594000       0.00152500 </v>
    <v>       0.99406900       0.00000000       0.69474100 </v>
    <v>       0.00000000       0.50000000       0.19474100 </v>
   </varray>
  </structure>
  <varray name="forces" >
   <v>       0.00187278      -2.17899535       0.08766437 </v>
   <v>      -0.00147126       0.11727503       0.08421490 </v>
   <v>       0.00095495      -0.09317576       0.07182143 </v>
   <v>       0.00082927       0.13074868       0.07127945 </v>
   <v>      -0.00162490       0.04224067       0.07570447 </v>
   <v>      -0.00169232      -0.26669833       0.06924562 </v>
   <v>       0.00825747       0.24004991       0.07488892 </v>
   <v>       0.00846230      -0.01286339       0.07480873 </v>
   <v>       0.07735022       0.02304448       0.98547603 </v>
   <v>       0.13012342       0.01153951       0.93137710 </v>
   <v>       0.13842007       0.06953077       0.05098072 </v>
   <v>       0.03021236       0.00967317       0.08741885 </v>
   <v>      -0.20109091       0.06179007      -1.05190743 </v>
   <v>      -0.06881658      -0.00317246      -1.03559740 </v>
   <v>       0.00669970       0.24535136      -0.32224204 </v>
   <v>       0.00568849       0.19685663      -0.22366272 </v>
   <v>       0.00623005      -0.19288407      -0.18929227 </v>
   <v>       0.00592795       0.13412727      -0.21612154 </v>
   <v>      -0.00699818       0.26072240       0.24520188 </v>
   <v>      -0.00603073       0.18778007       0.16130818 </v>
   <v>      -0.00633174      -0.18912807       0.12654229 </v>
   <v>      -0.00593729       0.12918445       0.15426868 </v>
   <v>       0.00064276      -0.50515132       0.21143298 </v>
   <v>      -0.00043233       0.48335123       0.21314928 </v>
   <v>      -0.03244865      -0.44774833       0.20614793 </v>
   <v>      -0.03346910       0.46959336       0.20549457 </v>
   <v>       0.00098001       0.95519904      -0.17706644 </v>
   <v>       0.00519453      -0.80910694      -0.16723673 </v>
   <v>      -0.00206653       0.86496837      -0.18443205 </v>
   <v>      -0.00078115      -0.85468118      -0.18357196 </v>
   <v>      -0.00393351       0.53553916      -0.02783523 </v>
   <v>      -0.00329428       0.39330652      -0.02724772 </v>
   <v>       0.00073182      -0.39610337      -0.02728496 </v>
   <v>      -0.00031006       0.40263842      -0.02601098 </v>
   <v>      -0.01464940      -0.01252767      -0.16962435 </v>
   <v>      -0.03719923      -0.00227431      -0.15929257 </v>
  </varray>
  <varray name="stress" >
   <v>    -246.82014903      -0.12971523      -1.23086638 </v>
   <v>      -0.12971463    -257.99190597      -0.25208781 </v>
   <v>      -1.23086606      -0.25208725    -283.26600995 </v>
  </varray>
  <energy>
   <i name="e_fr_energy">   -189.25157798 </i>
   <i name="e_wo_entrp">   -189.24668281 </i>
   <i name="e_0_energy">     -0.01468550 </i>
  </energy>
  <time name="totalsc">   73.84   81.32</time>
  <eigenvalues>
   <array>
    <dimension dim="1">band</dimension>
    <dimension dim="2">kpoint</dimension>
    <dimension dim="3">spin</dimension>
    <field>eigene</field>
    <field>occ</field>
    <set>
     <set comment="spin 1">
      <set comment="kpoint 1">
       <r>  -23.2075    1.0000 </r>
       <r>  -22.7031    1.0000 </r>
       <r>  -22.6633    1.0000 </r>
       <r>  -22.5619    1.0000 </r>
       <r>  -22.5359    1.0000 </r>
       <r>  -22.3707    1.0000 </r>
       <r>  -22.3434    1.0000 </r>
       <r>  -22.3314    1.0000 </r>
       <r>  -22.3005    1.0000 </r>
       <r>  -22.2798    1.0000 </r>
       <r>  -22.2552    1.0000 </r>
       <r>  -22.2378    1.0000 </r>
       <r>  -22.2147    1.0000 </r>
       <r>  -22.2057    1.0000 </r>
       <r>  -22.1749    1.0000 </r>
       <r>  -22.1499    1.0000 </r>
       <r>  -22.1449    1.0000 </r>
       <r>  -22.1272    1.0000 </r>
       <r>  -22.0896    1.0000 </r>
       <r>  -21.5266    1.0000 </r>
       <r>  -20.9494    1.0000 </r>
       <r>  -20.9169    1.0000 </r>
       <r>  -16.5445    1.0000 </r>
       <r>  -16.5148    1.0000 </r>
       <r>   -6.2709    1.0000 </r>
       <r>   -6.1039    1.0000 </r>
       <r>   -5.9040    1.0000 </r>
       <r>   -5.8371    1.0000 </r>
       <r>   -5.7671    1.0000 </r>
       <r>   -5.5362    1.0000 </r>
       <r>   -5.4603    1.0000 </r>
       <r>   -5.3569    1.0000 </r>
       <r>   -5.2675    1.0000 </r>
       <r>   -5.1204    1.0000 </r>
       <r>   -5.1167    1.0000 </r>
       <r>   -4.8330    1.0000 </r>
       <r>   -4.5761    1.0000 </r>
       <r>   -4.5116    1.0000 </r>
       <r>   -4.4631    1.0000 </r>
       <r>   -4.3919    1.0000 </r>
       <r>   -4.3759    1.0000 </r>
       <r>   -4.3379    1.0000 </r>
       <r>   -4.3126    1.0000 </r>
       <r>   -4.3101    1.0000 </r>
       <r>   -4.2903    1.0000 </r>
       <r>   -4.2857    1.0000 </r>
       <r>   -4.2706    1.0000 </r>
       <r>   -4.2317    1.0000 </r>
       <r>   -4.2060    1.0000 </r>
       <r>   -4.2005    1.0000 </r>
       <r>   -4.1951    1.0000 </r>
       <r>   -4.1830    1.0000 </r>
       <r>   -4.1423    1.0000 </r>
       <r>   -4.1419    1.0000 </r>
       <r>   -4.1168    1.0000 </r>
       <r>   -4.0923    1.0000 </r>
       <r>   -4.0797    1.0000 </r>
       <r>   -4.0428    1.0000 </r>
       <r>   -3.9959    1.0000 </r>
       <r>   -3.9488    1.0000 </r>
       <r>   -3.8787    1.0000 </r>
       <r>   -3.8109    1.0000 </r>
       <r>   -3.7596    1.0000 </r>
       <r>   -3.6960    1.0000 </r>
       <r>   -3.6808    1.0000 </r>
       <r>   -3.5916    1.0000 </r>
       <r>   -3.5848    1.0000 </r>
       <r>   -3.5118    1.0000 </r>
       <r>   -3.5059    1.0000 </r>
       <r>   -3.4647    1.0000 </r>
       <r>   -3.3768    1.0000 </r>
       <r>   -3.3755    1.0000 </r>
       <r>   -3.3591    1.0000 </r>
       <r>   -3.2307    1.0000 </r>
       <r>   -3.2208    1.0000 </r>
       <r>   -3.1949    1.0000 </r>
       <r>   -3.1660    1.0000 </r>
       <r>   -3.1536    1.0000 </r>
       <r>   -3.1146    1.0000 </r>
       <r>   -3.0479    1.0000 </r>
       <r>   -3.0343    1.0000 </r>
       <r>   -3.0226    1.0000 </r>
       <r>   -2.9872    1.0000 </r>
       <r>   -2.9462    1.0000 </r>
       <r>   -2.8374    1.0000 </r>
       <r>   -2.7846    1.0000 </r>
       <r>   -2.6134    1.0000 </r>
       <r>   -2.4059    1.0000 </r>
       <r>   -2.0393    1.0000 </r>
       <r>   -2.0111    1.0000 </r>
       <r>   -1.9877    1.0000 </r>
       <r>   -1.9241    1.0000 </r>
       <r>   -1.8221    1.0000 </r>
       <r>   -1.7802    1.0000 </r>
       <r>   -1.2713    1.0000 </r>
       <r>   -1.2491    1.0000 </r>
       <r>    0.8191    1.0000 </r>
       <r>    0.8604    1.0000 </r>
       <r>    0.9311    1.0000 </r>
       <r>    0.9528    1.0000 </r>
       <r>    0.9637    1.0000 </r>
       <r>    0.9852    1.0000 </r>
       <r>    1.0197    1.0000 </r>
       <r>    1.0258    1.0000 </r>
       <r>    1.0532    1.0000 </r>
       <r>    1.0791    1.0000 </r>
       <r>    1.0878    1.0000 </r>
       <r>    1.1104    1.0000 </r>
       <r>    1.1592    1.0000 </r>
       <r>    1.1810    1.0000 </r>
       <r>    1.1863    1.0000 </r>
       <r>    1.1955    1.0000 </r>
       <r>    1.2118    1.0000 </r>
       <r>    1.2500    1.0001 </r>
       <r>    1.2579    1.0001 </r>
       <r>    1.2681    1.0001 </r>
       <r>    1.2683    1.0001 </r>
       <r>    1.2834    1.0002 </r>
       <r>    1.3043    1.0004 </r>
       <r>    1.3417    1.0009 </r>
       <r>    1.3452    1.0010 </r>
       <r>    1.3901    1.0026 </r>
       <r>    1.3940    1.0028 </r>
       <r>    1.4905    1.0140 </r>
       <r>    1.5491    1.0269 </r>
       <r>    1.6063    1.0355 </r>
       <r>    1.6887    0.9948 </r>
       <r>    1.7011    0.9784 </r>
       <r>    1.7582    0.8543 </r>
       <r>    1.8017    0.7079 </r>
       <r>    1.8319    0.5871 </r>
       <r>    1.8448    0.5329 </r>
       <r>    1.9035    0.2923 </r>
       <r>    1.9632    0.1021 </r>
       <r>    1.9768    0.0708 </r>
       <r>    2.0624   -0.0295 </r>
       <r>    2.0728   -0.0327 </r>
       <r>    2.0979   -0.0355 </r>
       <r>    2.1207   -0.0337 </r>
       <r>    2.1631   -0.0253 </r>
       <r>    2.1885   -0.0195 </r>
       <r>    2.2165   -0.0137 </r>
       <r>    2.2466   -0.0088 </r>
       <r>    2.2820   -0.0048 </r>
       <r>    2.3688   -0.0008 </r>
       <r>    2.3959   -0.0004 </r>
       <r>    2.3986   -0.0004 </r>
       <r>    2.4167   -0.0002 </r>
       <r>    2.4374   -0.0001 </r>
       <r>    2.4647   -0.0001 </r>
       <r>    2.5621   -0.0000 </r>
       <r>    2.9330   -0.0000 </r>
       <r>    3.0763   -0.0000 </r>
       <r>    3.2095   -0.0000 </r>
       <r>    3.2666   -0.0000 </r>
       <r>    3.3235   -0.0000 </r>
       <r>    4.1183   -0.0000 </r>
       <r>    4.5988   -0.0000 </r>
       <r>    4.9498   -0.0000 </r>
       <r>    6.3599   -0.0000 </r>
      </set>
     </set>
    </set>
   </array>
  </eigenvalues>
  <separator name="orbital magnetization" >
   <v name="MAGDIPOLOUT">      0.00000000      0.00000000      0.00000000</v>
  </separator>
  <dos>
   <i name="efermi">      1.85259532 </i>
   <total>
    <array>
     <dimension dim="1">gridpoints</dimension>
     <dimension dim="2">spin</dimension>
     <field>energy</field>
     <field>total</field>
     <field>integrated</field>
     <set>
      <set comment="spin 1">
       <r>   -25.2075     0.0000     0.0000 </r>
       <r>   -25.0956     0.0000     0.0000 </r>
       <r>   -24.9837     0.0000     0.0000 </r>
       <r>   -24.8718    -0.0000    -0.0000 </r>
       <r>   -24.7599    -0.0000    -0.0000 </r>
       <r>   -24.6480    -0.0000    -0.0000 </r>
       <r>   -24.5361    -0.0000    -0.0000 </r>
       <r>   -24.4242    -0.0000    -0.0000 </r>
       <r>   -24.3123    -0.0000    -0.0000 </r>
       <r>   -24.2005    -0.0000    -0.0000 </r>
       <r>   -24.0886    -0.0000    -0.0000 </r>
       <r>   -23.9767    -0.0000    -0.0000 </r>
       <r>   -23.8648    -0.0003    -0.0000 </r>
       <r>   -23.7529    -0.0068    -0.0008 </r>
       <r>   -23.6410    -0.0731    -0.0090 </r>
       <r>   -23.5291    -0.3254    -0.0454 </r>
       <r>   -23.4172    -0.1213    -0.0589 </r>
       <r>   -23.3053     2.9533     0.2715 </r>
       <r>   -23.1934     7.5331     1.1144 </r>
       <r>   -23.0815     6.3904     1.8294 </r>
       <r>   -22.9697     0.8707     1.9268 </r>
       <r>   -22.8578    -0.1198     1.9134 </r>
       <r>   -22.7459     8.4222     2.8558 </r>
       <r>   -22.6340    20.6592     5.1674 </r>
       <r>   -22.5221    24.4631     7.9046 </r>
       <r>   -22.4102    31.3556    11.4130 </r>
       <r>   -22.2983    61.0844    18.2478 </r>
       <r>   -22.1864    86.5855    27.9360 </r>
       <r>   -22.0745    68.4070    35.5901 </r>
       <r>   -21.9626    24.9957    38.3869 </r>
       <r>   -21.8507    -0.1900    38.3657 </r>
       <r>   -21.7389    -2.8942    38.0418 </r>
       <r>   -21.6270     2.0374    38.2698 </r>
       <r>   -21.5151     7.3973    39.0975 </r>
       <r>   -21.4032     6.6887    39.8459 </r>
       <r>   -21.2913     1.4686    40.0102 </r>
       <r>   -21.1794    -1.0190    39.8962 </r>
       <r>   -21.0675     2.8953    40.2202 </r>
       <r>   -20.9556    12.5749    41.6272 </r>
       <r>   -20.8437    15.3652    43.3464 </r>
       <r>   -20.7318     6.6911    44.0951 </r>
       <r>   -20.6199     0.0298    44.0984 </r>
       <r>   -20.5080    -0.6869    44.0216 </r>
       <r>   -20.3962    -0.1741    44.0021 </r>
       <r>   -20.2843    -0.0178    44.0001 </r>
       <r>   -20.1724    -0.0009    44.0000 </r>
       <r>   -20.0605    -0.0000    44.0000 </r>
       <r>   -19.9486    -0.0000    44.0000 </r>
       <r>   -19.8367    -0.0000    44.0000 </r>
       <r>   -19.7248    -0.0000    44.0000 </r>
       <r>   -19.6129    -0.0000    44.0000 </r>
       <r>   -19.5010     0.0000    44.0000 </r>
       <r>   -19.3891     0.0000    44.0000 </r>
       <r>   -19.2772     0.0000    44.0000 </r>
       <r>   -19.1654     0.0000    44.0000 </r>
       <r>   -19.0535     0.0000    44.0000 </r>
       <r>   -18.9416     0.0000    44.0000 </r>
       <r>   -18.8297     0.0000    44.0000 </r>
       <r>   -18.7178     0.0000    44.0000 </r>
       <r>   -18.6059     0.0000    44.0000 </r>
       <r>   -18.4940     0.0000    44.0000 </r>
       <r>   -18.3821     0.0000    44.0000 </r>
       <r>   -18.2702     0.0000    44.0000 </r>
       <r>   -18.1583    -0.0000    44.0000 </r>
       <r>   -18.0464    -0.0000    44.0000 </r>
       <r>   -17.9345    -0.0000    44.0000 </r>
       <r>   -17.8227    -0.0000    44.0000 </r>
       <r>   -17.7108    -0.0000    44.0000 </r>
       <r>   -17.5989    -0.0000    44.0000 </r>
       <r>   -17.4870    -0.0000    44.0000 </r>
       <r>   -17.3751    -0.0000    44.0000 </r>
       <r>   -17.2632    -0.0001    44.0000 </r>
       <r>   -17.1513    -0.0019    43.9998 </r>
       <r>   -17.0394    -0.0329    43.9961 </r>
       <r>   -16.9275    -0.2668    43.9662 </r>
       <r>   -16.8156    -0.7835    43.8786 </r>
       <r>   -16.7037     0.9501    43.9849 </r>
       <r>   -16.5919     9.1559    45.0093 </r>
       <r>   -16.4800    16.0504    46.8052 </r>
       <r>   -16.3681    10.3053    47.9583 </r>
       <r>   -16.2562     1.5339    48.1299 </r>
       <r>   -16.1443    -0.7954    48.0409 </r>
       <r>   -16.0324    -0.3198    48.0052 </r>
       <r>   -15.9205    -0.0434    48.0003 </r>
       <r>   -15.8086    -0.0027    48.0000 </r>
       <r>   -15.6967    -0.0001    48.0000 </r>
       <r>   -15.5848    -0.0000    48.0000 </r>
       <r>   -15.4729    -0.0000    48.0000 </r>
       <r>   -15.3610    -0.0000    48.0000 </r>
       <r>   -15.2492    -0.0000    48.0000 </r>
       <r>   -15.1373     0.0000    48.0000 </r>
       <r>   -15.0254     0.0000    48.0000 </r>
       <r>   -14.9135     0.0000    48.0000 </r>
       <r>   -14.8016     0.0000    48.0000 </r>
       <r>   -14.6897     0.0000    48.0000 </r>
       <r>   -14.5778     0.0000    48.0000 </r>
       <r>   -14.4659     0.0000    48.0000 </r>
       <r>   -14.3540     0.0000    48.0000 </r>
       <r>   -14.2421     0.0000    48.0000 </r>
       <r>   -14.1302     0.0000    48.0000 </r>
       <r>   -14.0184     0.0000    48.0000 </r>
       <r>   -13.9065     0.0000    48.0000 </r>
       <r>   -13.7946     0.0000    48.0000 </r>
       <r>   -13.6827     0.0000    48.0000 </r>
       <r>   -13.5708     0.0000    48.0000 </r>
       <r>   -13.4589     0.0000    48.0000 </r>
       <r>   -13.3470     0.0000    48.0000 </r>
       <r>   -13.2351     0.0000    48.0000 </r>
       <r>   -13.1232     0.0000    48.0000 </r>
       <r>   -13.0113     0.0000    48.0000 </r>
       <r>   -12.8994     0.0000    48.0000 </r>
       <r>   -12.7875     0.0000    48.0000 </r>
       <r>   -12.6757     0.0000    48.0000 </r>
       <r>   -12.5638     0.0000    48.0000 </r>
       <r>   -12.4519     0.0000    48.0000 </r>
       <r>   -12.3400     0.0000    48.0000 </r>
       <r>   -12.2281     0.0000    48.0000 </r>
       <r>   -12.1162     0.0000    48.0000 </r>
       <r>   -12.0043     0.0000    48.0000 </r>
       <r>   -11.8924     0.0000    48.0000 </r>
       <r>   -11.7805     0.0000    48.0000 </r>
       <r>   -11.6686     0.0000    48.0000 </r>
       <r>   -11.5567     0.0000    48.0000 </r>
       <r>   -11.4449     0.0000    48.0000 </r>
       <r>   -11.3330     0.0000    48.0000 </r>
       <r>   -11.2211     0.0000    48.0000 </r>
       <r>   -11.1092     0.0000    48.0000 </r>
       <r>   -10.9973     0.0000    48.0000 </r>
       <r>   -10.8854     0.0000    48.0000 </r>
       <r>   -10.7735     0.0000    48.0000 </r>
       <r>   -10.6616     0.0000    48.0000 </r>
       <r>   -10.5497     0.0000    48.0000 </r>
       <r>   -10.4378     0.0000    48.0000 </r>
       <r>   -10.3259     0.0000    48.0000 </r>
       <r>   -10.2141     0.0000    48.0000 </r>
       <r>   -10.1022     0.0000    48.0000 </r>
       <r>    -9.9903     0.0000    48.0000 </r>
       <r>    -9.8784     0.0000    48.0000 </r>
       <r>    -9.7665     0.0000    48.0000 </r>
       <r>    -9.6546     0.0000    48.0000 </r>
       <r>    -9.5427     0.0000    48.0000 </r>
       <r>    -9.4308     0.0000    48.0000 </r>
       <r>    -9.3189     0.0000    48.0000 </r>
       <r>    -9.2070     0.0000    48.0000 </r>
       <r>    -9.0951     0.0000    48.0000 </r>
       <r>    -8.9832     0.0000    48.0000 </r>
       <r>    -8.8714     0.0000    48.0000 </r>
       <r>    -8.7595     0.0000    48.0000 </r>
       <r>    -8.6476     0.0000    48.0000 </r>
       <r>    -8.5357     0.0000    48.0000 </r>
       <r>    -8.4238     0.0000    48.0000 </r>
       <r>    -8.3119     0.0000    48.0000 </r>
       <r>    -8.2000     0.0000    48.0000 </r>
       <r>    -8.0881     0.0000    48.0000 </r>
       <r>    -7.9762    -0.0000    48.0000 </r>
       <r>    -7.8643    -0.0000    48.0000 </r>
       <r>    -7.7524    -0.0000    48.0000 </r>
       <r>    -7.6406    -0.0000    48.0000 </r>
       <r>    -7.5287    -0.0000    48.0000 </r>
       <r>    -7.4168    -0.0000    48.0000 </r>
       <r>    -7.3049    -0.0000    48.0000 </r>
       <r>    -7.1930    -0.0000    48.0000 </r>
       <r>    -7.0811    -0.0000    48.0000 </r>
       <r>    -6.9692    -0.0001    48.0000 </r>
       <r>    -6.8573    -0.0024    47.9997 </r>
       <r>    -6.7454    -0.0339    47.9959 </r>
       <r>    -6.6335    -0.2231    47.9710 </r>
       <r>    -6.5216    -0.4794    47.9173 </r>
       <r>    -6.4097     0.9997    48.0292 </r>
       <r>    -6.2979     6.0552    48.7067 </r>
       <r>    -6.1860    10.7561    49.9102 </r>
       <r>    -6.0741    11.2479    51.1688 </r>
       <r>    -5.9622    12.6784    52.5874 </r>
       <r>    -5.8503    18.8451    54.6960 </r>
       <r>    -5.7384    19.2757    56.8528 </r>
       <r>    -5.6265    12.6655    58.2699 </r>
       <r>    -5.5146    13.6354    59.7956 </r>
       <r>    -5.4027    19.6673    61.9962 </r>
       <r>    -5.2908    21.3629    64.3865 </r>
       <r>    -5.1789    21.3823    66.7790 </r>
       <r>    -5.0671    18.9457    68.8989 </r>
       <r>    -4.9552    11.2842    70.1615 </r>
       <r>    -4.8433     6.6800    70.9089 </r>
       <r>    -4.7314     5.7606    71.5535 </r>
       <r>    -4.6195     8.1059    72.4605 </r>
       <r>    -4.5076    21.6541    74.8834 </r>
       <r>    -4.3957    49.7935    80.4548 </r>
       <r>    -4.2838    87.6404    90.2610 </r>
       <r>    -4.1719   108.5043   102.4017 </r>
       <r>    -4.0600    91.4250   112.6314 </r>
       <r>    -3.9481    55.6732   118.8607 </r>
       <r>    -3.8362    34.3205   122.7009 </r>
       <r>    -3.7244    34.1037   126.5168 </r>
       <r>    -3.6125    41.6628   131.1785 </r>
       <r>    -3.5006    47.2225   136.4623 </r>
       <r>    -3.3887    47.0653   141.7285 </r>
       <r>    -3.2768    47.0364   146.9914 </r>
       <r>    -3.1649    56.0221   153.2598 </r>
       <r>    -3.0530    62.6002   160.2642 </r>
       <r>    -2.9411    52.3277   166.1192 </r>
       <r>    -2.8292    32.8819   169.7984 </r>
       <r>    -2.7173    18.6086   171.8806 </r>
       <r>    -2.6054    11.7749   173.1981 </r>
       <r>    -2.4936     9.5328   174.2647 </r>
       <r>    -2.3817     8.4425   175.2094 </r>
       <r>    -2.2698     4.3620   175.6974 </r>
       <r>    -2.1579     4.1868   176.1659 </r>
       <r>    -2.0460    18.4354   178.2287 </r>
       <r>    -1.9341    33.3404   181.9592 </r>
       <r>    -1.8222    31.6072   185.4957 </r>
       <r>    -1.7103    18.4885   187.5644 </r>
       <r>    -1.5984     4.7860   188.0999 </r>
       <r>    -1.4865    -1.1027   187.9766 </r>
       <r>    -1.3746     3.7836   188.3999 </r>
       <r>    -1.2627    13.9331   189.9589 </r>
       <r>    -1.1509    14.4198   191.5724 </r>
       <r>    -1.0390     4.9730   192.1288 </r>
       <r>    -0.9271    -0.4317   192.0805 </r>
       <r>    -0.8152    -0.5876   192.0147 </r>
       <r>    -0.7033    -0.1208   192.0012 </r>
       <r>    -0.5914    -0.0105   192.0001 </r>
       <r>    -0.4795    -0.0004   192.0000 </r>
       <r>    -0.3676    -0.0000   192.0000 </r>
       <r>    -0.2557    -0.0000   192.0000 </r>
       <r>    -0.1438    -0.0000   192.0000 </r>
       <r>    -0.0319    -0.0000   192.0000 </r>
       <r>     0.0799    -0.0000   192.0000 </r>
       <r>     0.1918    -0.0010   191.9999 </r>
       <r>     0.3037    -0.0206   191.9976 </r>
       <r>     0.4156    -0.2159   191.9734 </r>
       <r>     0.5275    -1.0767   191.8530 </r>
       <r>     0.6394    -1.8388   191.6472 </r>
       <r>     0.7513     4.1853   192.1155 </r>
       <r>     0.8632    26.3125   195.0596 </r>
       <r>     0.9751    60.1217   201.7867 </r>
       <r>     1.0870    88.5730   211.6973 </r>
       <r>     1.1989   106.6849   223.6344 </r>
       <r>     1.3108   107.5094   235.6638 </r>
       <r>     1.4226    77.2259   244.3047 </r>
       <r>     1.5345    41.6638   248.9665 </r>
       <r>     1.6464    32.6007   252.6142 </r>
       <r>     1.7583    42.2740   257.3443 </r>
       <r>     1.8702    49.5033   262.8833 </r>
       <r>     1.9821    50.5841   268.5432 </r>
       <r>     2.0940    56.1251   274.8231 </r>
       <r>     2.2059    61.5874   281.7142 </r>
       <r>     2.3178    61.1555   288.5570 </r>
       <r>     2.4297    59.5694   295.2223 </r>
       <r>     2.5416    44.1486   300.1621 </r>
       <r>     2.6534    16.8279   302.0450 </r>
       <r>     2.7653     1.3892   302.2004 </r>
       <r>     2.8772     2.8236   302.5164 </r>
       <r>     2.9891     9.9774   303.6328 </r>
       <r>     3.1010    15.4548   305.3620 </r>
       <r>     3.2129    21.4912   307.7667 </r>
       <r>     3.3248    23.4238   310.3876 </r>
       <r>     3.4367    13.6120   311.9107 </r>
       <r>     3.5486     2.3325   312.1717 </r>
       <r>     3.6605    -1.0231   312.0572 </r>
       <r>     3.7724    -0.7370   311.9747 </r>
       <r>     3.8842    -0.3933   311.9307 </r>
       <r>     3.9961     1.9618   312.1502 </r>
       <r>     4.1080     6.7936   312.9104 </r>
       <r>     4.2199     7.2974   313.7269 </r>
       <r>     4.3318     2.3851   313.9938 </r>
       <r>     4.4437     0.7213   314.0745 </r>
       <r>     4.5556     5.0017   314.6341 </r>
       <r>     4.6675     7.5842   315.4827 </r>
       <r>     4.7794     4.7962   316.0194 </r>
       <r>     4.8913     5.0657   316.5862 </r>
       <r>     5.0032     7.7141   317.4493 </r>
       <r>     5.1151     4.8730   317.9946 </r>
       <r>     5.2269     0.6261   318.0646 </r>
       <r>     5.3388    -0.4078   318.0190 </r>
       <r>     5.4507    -0.1496   318.0023 </r>
       <r>     5.5626    -0.0191   318.0001 </r>
       <r>     5.6745    -0.0013   318.0000 </r>
       <r>     5.7864    -0.0033   317.9996 </r>
       <r>     5.8983    -0.0433   317.9948 </r>
       <r>     6.0102    -0.2479   317.9670 </r>
       <r>     6.1221    -0.3355   317.9295 </r>
       <r>     6.2340     1.8298   318.1342 </r>
       <r>     6.3459     6.6784   318.8815 </r>
       <r>     6.4577     7.5679   319.7283 </r>
       <r>     6.5696     2.9553   320.0589 </r>
       <r>     6.6815    -0.1212   320.0454 </r>
       <r>     6.7934    -0.3254   320.0090 </r>
       <r>     6.9053    -0.0731   320.0008 </r>
       <r>     7.0172    -0.0068   320.0000 </r>
       <r>     7.1291    -0.0003   320.0000 </r>
       <r>     7.2410    -0.0000   320.0000 </r>
       <r>     7.3529    -0.0000   320.0000 </r>
       <r>     7.4648    -0.0000   320.0000 </r>
       <r>     7.5767    -0.0000   320.0000 </r>
       <r>     7.6886    -0.0000   320.0000 </r>
       <r>     7.8004     0.0000   320.0000 </r>
       <r>     7.9123     0.0000   320.0000 </r>
       <r>     8.0242     0.0000   320.0000 </r>
       <r>     8.1361     0.0000   320.0000 </r>
       <r>     8.2480     0.0000   320.0000 </r>
       <r>     8.3599     0.0000   320.0000 </r>
      </set>
     </set>
    </array>
   </total>
  </dos>
 </calculation>
 <structure name="finalpos" >
  <crystal>
   <varray name="basis" >
    <v>       3.25262800       0.00072800       0.00000000 </v>
    <v>       0.00000000      20.54938400       0.00000000 </v>
    <v>       0.01583100       0.00000000       6.79221100 </v>
   </varray>
   <i name="volume">    453.98799923 </i>
   <varray name="rec_basis" >
    <v>       0.30744370       0.00000000      -0.00071658 </v>
    <v>      -0.00001089       0.04866326       0.00000003 </v>
    <v>       0.00000000       0.00000000       0.14722746 </v>
   </varray>
  </crystal>
  <varray name="positions" >
   <v>       0.00000000       0.17596300       0.50139100 </v>
   <v>       0.00000000       0.83328100       0.50139100 </v>
   <v>       0.00000000       0.66671900       0.00139100 </v>
   <v>       0.00000000       0.33328100       0.00139100 </v>
   <v>       0.50000000       0.16602100       0.00000400 </v>
   <v>       0.50000000       0.83397900       0.00000400 </v>
   <v>       0.50000000       0.66602100       0.50000400 </v>
   <v>       0.50000000       0.33397900       0.50000400 </v>
   <v>       0.00000000       0.00000000       0.01216200 </v>
   <v>       0.99604900       0.50000000       0.51216200 </v>
   <v>       0.50000000       0.00000000       0.47240000 </v>
   <v>       0.50000000       0.50000000       0.97240000 </v>
   <v>       0.00930200       0.00000000       0.31436200 </v>
   <v>       0.00000000       0.50000000       0.81436200 </v>
   <v>       0.00000000       0.16816900       0.20381000 </v>
   <v>       0.00000000       0.83183100       0.20329900 </v>
   <v>       0.00000000       0.66816900       0.70329900 </v>
   <v>       0.00000000       0.33183100       0.70329900 </v>
   <v>       0.00000000       0.16838200       0.79934600 </v>
   <v>       0.00000000       0.83161800       0.79934600 </v>
   <v>       0.00000000       0.66838200       0.29934600 </v>
   <v>       0.00000000       0.33161800       0.29934600 </v>
   <v>       0.50000000       0.06837200       0.99633700 </v>
   <v>       0.50000000       0.93162800       0.99633700 </v>
   <v>       0.50000000       0.56837200       0.49633700 </v>
   <v>       0.50000000       0.43162800       0.49633700 </v>
   <v>       0.50000000       0.10536800       0.50567900 </v>
   <v>       0.50000000       0.90181600       0.50567900 </v>
   <v>       0.50000000       0.59818400       0.00567900 </v>
   <v>       0.50000000       0.40181600       0.00567900 </v>
   <v>       0.50000000       0.23406000       0.50152500 </v>
   <v>       0.50000000       0.76594000       0.50152500 </v>
   <v>       0.50000000       0.73406000       0.00152500 </v>
   <v>       0.50000000       0.26594000       0.00152500 </v>
   <v>       0.99406900       0.00000000       0.69474100 </v>
   <v>       0.00000000       0.50000000       0.19474100 </v>
  </varray>
 </structure>
</modeling>
