<?xml version="1.0" encoding="ISO-8859-1"?>
<modeling>
 <generator>
  <i name="program" type="string">vasp </i>
  <i name="version" type="string">5.3.5  </i>
  <i name="subversion" type="string">31Mar14 (build Aug 29 2014 19:41:47) complex                          parallel </i>
  <i name="platform" type="string">LinuxIFC </i>
  <i name="date" type="string">2019 04 11 </i>
  <i name="time" type="string">15:49:21 </i>
 </generator>
 <incar>
  <i type="string" name="SYSTEM"> Fe6OF11_var_10</i>
  <i type="int" name="ISTART">     0</i>
  <i type="string" name="PREC">normal</i>
  <i type="string" name="ALGO"> VeryFast</i>
  <i type="int" name="ISPIN">     1</i>
  <i type="int" name="ICHARG">     2</i>
  <i type="int" name="NELM">   300</i>
  <i type="int" name="ISYM">     0</i>
  <i type="logical" name="LWAVE"> F  </i>
  <i type="int" name="NELM">   300</i>
 </incar>
 <kpoints>
  <generation param="Gamma">
   <v type="int" name="divisions">       1        1        1 </v>
   <v name="usershift">      0.00000000       0.00000000       0.00000000 </v>
   <v name="genvec1">      1.00000000       0.00000000       0.00000000 </v>
   <v name="genvec2">      0.00000000       1.00000000       0.00000000 </v>
   <v name="genvec3">      0.00000000       0.00000000       1.00000000 </v>
   <v name="shift">      0.00000000       0.00000000       0.00000000 </v>
  </generation>
  <varray name="kpointlist" >
   <v>       0.00000000       0.00000000       0.00000000 </v>
  </varray>
  <varray name="weights" >
   <v>       1.00000000 </v>
  </varray>
 </kpoints>
 <parameters>
  <separator name="general" >
   <i type="string" name="SYSTEM">Fe6OF11_var_10</i>
   <i type="logical" name="LCOMPAT"> F  </i>
  </separator>
  <separator name="electronic" >
   <i type="string" name="PREC">normal</i>
   <i name="ENMAX">    400.00000000</i>
   <i name="ENAUG">    613.61400000</i>
   <i name="EDIFF">      0.00010000</i>
   <i type="int" name="IALGO">    48</i>
   <i type="int" name="IWAVPR">    10</i>
   <i type="int" name="NBANDS">   160</i>
   <i name="NELECT">    262.00000000</i>
   <i type="int" name="TURBO">     0</i>
   <i type="int" name="IRESTART">     0</i>
   <i type="int" name="NREBOOT">     0</i>
   <i type="int" name="NMIN">     0</i>
   <i name="EREF">      0.00000000</i>
   <separator name="electronic smearing" >
    <i type="int" name="ISMEAR">     1</i>
    <i name="SIGMA">      0.20000000</i>
    <i name="KSPACING">      0.50000000</i>
    <i type="logical" name="KGAMMA"> T  </i>
   </separator>
   <separator name="electronic projectors" >
    <i type="logical" name="LREAL"> F  </i>
    <v name="ROPT">      0.00000000      0.00000000      0.00000000</v>
    <i type="int" name="LMAXPAW">  -100</i>
    <i type="int" name="LMAXMIX">     2</i>
    <i type="logical" name="NLSPLINE"> F  </i>
   </separator>
   <separator name="electronic startup" >
    <i type="int" name="ISTART">     0</i>
    <i type="int" name="ICHARG">     2</i>
    <i type="int" name="INIWAV">     1</i>
   </separator>
   <separator name="electronic spin" >
    <i type="int" name="ISPIN">     1</i>
    <i type="logical" name="LNONCOLLINEAR"> F  </i>
    <v name="MAGMOM">      1.00000000      1.00000000      1.00000000      1.00000000      1.00000000      1.00000000      1.00000000      1.00000000      1.00000000      1.00000000      1.00000000      1.00000000      1.00000000      1.00000000      1.00000000      1.00000000      1.00000000      1.00000000      1.00000000      1.00000000
      1.00000000      1.00000000      1.00000000      1.00000000      1.00000000      1.00000000      1.00000000      1.00000000      1.00000000      1.00000000      1.00000000      1.00000000      1.00000000      1.00000000      1.00000000      1.00000000</v>
    <i name="NUPDOWN">     -1.00000000</i>
    <i type="logical" name="LSORBIT"> F  </i>
    <v name="SAXIS">      0.00000000      0.00000000      1.00000000</v>
    <i type="logical" name="LSPIRAL"> F  </i>
    <v name="QSPIRAL">      0.00000000      0.00000000      0.00000000</v>
    <i type="logical" name="LZEROZ"> F  </i>
   </separator>
   <separator name="electronic exchange-correlation" >
    <i type="logical" name="LASPH"> F  </i>
    <i type="logical" name="LMETAGGA"> F  </i>
   </separator>
   <separator name="electronic convergence" >
    <i type="int" name="NELM">   300</i>
    <i type="int" name="NELMDL">   -12</i>
    <i type="int" name="NELMIN">     2</i>
    <i name="ENINI">    400.00000000</i>
    <separator name="electronic convergence detail" >
     <i type="logical" name="LDIAG"> T  </i>
     <i type="logical" name="LSUBROT"> F  </i>
     <i name="WEIMIN">      0.00000000</i>
     <i name="EBREAK">      0.00000016</i>
     <i name="DEPER">      0.30000000</i>
     <i type="int" name="NRMM">     4</i>
     <i name="TIME">      0.40000000</i>
    </separator>
   </separator>
   <separator name="electronic mixer" >
    <i name="AMIX">      0.40000000</i>
    <i name="BMIX">      1.00000000</i>
    <i name="AMIN">      0.10000000</i>
    <i name="AMIX_MAG">      1.60000000</i>
    <i name="BMIX_MAG">      1.00000000</i>
    <separator name="electronic mixer details" >
     <i type="int" name="IMIX">     4</i>
     <i type="int" name="MAXMIX">   -45</i>
     <i name="WC">    100.00000000</i>
     <i type="int" name="INIMIX">     1</i>
     <i type="int" name="MIXPRE">     1</i>
     <i type="int" name="MREMOVE">     5</i>
    </separator>
   </separator>
   <separator name="electronic dipolcorrection" >
    <i type="logical" name="LDIPOL"> F  </i>
    <i type="logical" name="LMONO"> F  </i>
    <i type="int" name="IDIPOL">     0</i>
    <i name="EPSILON">      1.00000000</i>
    <v name="DIPOL">   -100.00000000   -100.00000000   -100.00000000</v>
    <i name="EFIELD">      0.00000000</i>
   </separator>
  </separator>
  <separator name="grids" >
   <i type="int" name="NGX">    16</i>
   <i type="int" name="NGY">   108</i>
   <i type="int" name="NGZ">    36</i>
   <i type="int" name="NGXF">    32</i>
   <i type="int" name="NGYF">   216</i>
   <i type="int" name="NGZF">    72</i>
   <i type="logical" name="ADDGRID"> F  </i>
  </separator>
  <separator name="ionic" >
   <i type="int" name="NSW">     0</i>
   <i type="int" name="IBRION">    -1</i>
   <i type="int" name="ISIF">     2</i>
   <i name="PSTRESS">      0.00000000</i>
   <i name="EDIFFG">      0.00100000</i>
   <i type="int" name="NFREE">     0</i>
   <i name="POTIM">      0.50000000</i>
   <i name="SMASS">     -3.00000000</i>
   <i name="SCALEE">      1.00000000</i>
  </separator>
  <separator name="ionic md" >
   <i name="TEBEG">      0.00010000</i>
   <i name="TEEND">      0.00010000</i>
   <i type="int" name="NBLOCK">     1</i>
   <i type="int" name="KBLOCK">     1</i>
   <i type="int" name="NPACO">   256</i>
   <i name="APACO">     16.00000000</i>
  </separator>
  <separator name="symmetry" >
   <i type="int" name="ISYM">     0</i>
   <i name="SYMPREC">      0.00001000</i>
  </separator>
  <separator name="dos" >
   <i type="logical" name="LORBIT"> F  </i>
   <v name="RWIGS">     -1.00000000     -1.00000000     -1.00000000</v>
   <i type="int" name="NEDOS">   301</i>
   <i name="EMIN">     10.00000000</i>
   <i name="EMAX">    -10.00000000</i>
   <i name="EFERMI">      0.00000000</i>
  </separator>
  <separator name="writing" >
   <i type="int" name="NWRITE">     2</i>
   <i type="logical" name="LWAVE"> F  </i>
   <i type="logical" name="LCHARG"> T  </i>
   <i type="logical" name="LPARD"> F  </i>
   <i type="logical" name="LVTOT"> F  </i>
   <i type="logical" name="LVHAR"> F  </i>
   <i type="logical" name="LELF"> F  </i>
   <i type="logical" name="LOPTICS"> F  </i>
   <v name="STM">      0.00000000      0.00000000      0.00000000      0.00000000      0.00000000      0.00000000      0.00000000</v>
  </separator>
  <separator name="performance" >
   <i type="int" name="NPAR">     4</i>
   <i type="int" name="NSIM">     4</i>
   <i type="int" name="NBLK">    -1</i>
   <i type="logical" name="LPLANE"> T  </i>
   <i type="logical" name="LSCALAPACK"> T  </i>
   <i type="logical" name="LSCAAWARE"> F  </i>
   <i type="logical" name="LSCALU"> F  </i>
   <i type="logical" name="LASYNC"> F  </i>
   <i type="logical" name="LORBITALREAL"> F  </i>
  </separator>
  <separator name="miscellaneous" >
   <i type="int" name="IDIOT">     3</i>
   <i type="logical" name="LMUSIC"> F  </i>
   <v name="POMASS">     55.84700000     16.00000000     18.99800000</v>
   <v name="DARWINR">      0.00000000      0.00000000      0.00000000</v>
   <v name="DARWINV">      1.00000000      1.00000000      1.00000000</v>
   <i type="logical" name="LCORR"> T  </i>
  </separator>
  <i type="logical" name="GGA_COMPAT"> T  </i>
  <i type="logical" name="LBERRY"> F  </i>
  <i type="int" name="ICORELEVEL">     0</i>
  <i type="logical" name="LDAU"> F  </i>
  <i type="int" name="I_CONSTRAINED_M">     0</i>
  <separator name="electronic exchange-correlation" >
   <i type="string" name="GGA">--</i>
   <i type="int" name="VOSKOWN">     0</i>
   <i type="logical" name="LHFCALC"> F  </i>
   <i type="string" name="PRECFOCK"></i>
   <i type="logical" name="LSYMGRAD"> F  </i>
   <i type="logical" name="LHFONE"> F  </i>
   <i type="logical" name="LRHFCALC"> F  </i>
   <i type="logical" name="LTHOMAS"> F  </i>
   <i type="logical" name="LMODELHF"> F  </i>
   <i name="ENCUT4O">     -1.00000000</i>
   <i type="int" name="EXXOEP">     0</i>
   <i type="int" name="FOURORBIT">     0</i>
   <i name="AEXX">      0.00000000</i>
   <i name="HFALPHA">      0.00000000</i>
   <i name="MCALPHA">      0.00000000</i>
   <i name="ALDAX">      1.00000000</i>
   <i name="AGGAX">      1.00000000</i>
   <i name="ALDAC">      1.00000000</i>
   <i name="AGGAC">      1.00000000</i>
   <i type="int" name="NKREDX">     1</i>
   <i type="int" name="NKREDY">     1</i>
   <i type="int" name="NKREDZ">     1</i>
   <i type="logical" name="SHIFTRED"> F  </i>
   <i type="logical" name="ODDONLY"> F  </i>
   <i type="logical" name="EVENONLY"> F  </i>
   <i type="int" name="LMAXFOCK">     0</i>
   <i type="int" name="NMAXFOCKAE">     0</i>
   <i type="logical" name="LFOCKAEDFT"> F  </i>
   <i name="HFSCREEN">      0.00000000</i>
   <i name="HFSCREENC">      0.00000000</i>
   <i type="int" name="NBANDSGWLOW">     0</i>
  </separator>
  <separator name="vdW DFT" >
   <i type="logical" name="LUSE_VDW"> F  </i>
   <i name="Zab_VDW">     -0.84910000</i>
   <i name="PARAM1">      0.12340000</i>
   <i name="PARAM2">      1.00000000</i>
   <i name="PARAM3">      0.00000000</i>
  </separator>
  <separator name="model GW" >
   <i type="int" name="MODEL_GW">     0</i>
   <i name="MODEL_EPS0">      7.62486050</i>
   <i name="MODEL_ALPHA">      1.00000000</i>
  </separator>
  <separator name="linear response parameters" >
   <i type="logical" name="LEPSILON"> F  </i>
   <i type="logical" name="LRPA"> F  </i>
   <i type="logical" name="LNABLA"> F  </i>
   <i type="logical" name="LVEL"> F  </i>
   <i type="int" name="KINTER">     0</i>
   <i name="CSHIFT">      0.10000000</i>
   <i name="OMEGAMAX">     -1.00000000</i>
   <i name="DEG_THRESHOLD">      0.00200000</i>
  </separator>
  <separator name="orbital magnetization" >
   <i type="logical" name="NUCIND"> F  </i>
   <v name="MAGPOS">      0.00000000      0.00000000      0.00000000</v>
   <i type="logical" name="LNICSALL"> T  </i>
   <i type="logical" name="ORBITALMAG"> F  </i>
   <i type="logical" name="LMAGBLOCH"> F  </i>
   <i type="logical" name="LCHIMAG"> F  </i>
   <i type="logical" name="LGAUGE"> T  </i>
   <i type="int" name="MAGATOM">     0</i>
   <v name="MAGDIPOL">      0.00000000      0.00000000      0.00000000</v>
   <v name="AVECCONST">      0.00000000      0.00000000      0.00000000</v>
  </separator>
  <separator name="response functions" >
   <i type="logical" name="LADDER"> F  </i>
   <i type="logical" name="LFXC"> F  </i>
   <i type="logical" name="LHARTREE"> T  </i>
   <i type="int" name="IBSE">     0</i>
   <i type="logical" name="LTCTE"> F  </i>
   <i type="logical" name="LTETE"> F  </i>
   <i type="logical" name="LTRIPLET"> F  </i>
   <i type="logical" name="LFXCEPS"> F  </i>
   <i type="logical" name="LFXHEG"> F  </i>
   <i type="logical" name="L2ORDER"> F  </i>
   <i type="logical" name="LUSEW"> F  </i>
   <i name="ENCUTGW">     -2.00000000</i>
   <i name="ENCUTGWSOFT">     -2.00000000</i>
   <i name="ENCUTLF">     -1.00000000</i>
   <i type="int" name="LMAXMP2">    -1</i>
   <i name="SCISSOR">      0.00000000</i>
   <i type="int" name="NOMEGA">     0</i>
   <i type="int" name="NOMEGAR">     0</i>
   <i type="int" name="NBANDSGW">    -1</i>
   <i type="int" name="NBANDSO">    -1</i>
   <i type="int" name="NBANDSV">    -1</i>
   <i type="int" name="NELM">   300</i>
   <i type="int" name="DIM">     3</i>
   <i type="int" name="ANTIRES">     0</i>
   <i name="OMEGAMAX">    -30.00000000</i>
   <i name="OMEGAMIN">    -30.00000000</i>
   <i name="OMEGATL">   -200.00000000</i>
   <i type="int" name="OMEGAGRID">     0</i>
   <i name="CSHIFT">     -0.10000000</i>
   <i type="logical" name="SELFENERGY"> F  </i>
   <i type="logical" name="LSPECTRAL"> F  </i>
   <i type="logical" name="ODDONLYGW"> F  </i>
   <i type="logical" name="EVENONLYGW"> F  </i>
   <i type="int" name="NKREDLFX">     1</i>
   <i type="int" name="NKREDLFY">     1</i>
   <i type="int" name="NKREDLFZ">     1</i>
   <i type="int" name="MAXMEM">  1800</i>
   <i type="int" name="TELESCOPE">     0</i>
   <i type="int" name="TAUPAR">     1</i>
  </separator>
  <separator name="External order field" >
   <i name="OFIELD_KAPPA">      0.00000000</i>
   <v name="OFIELD_K">      0.00000000      0.00000000      0.00000000</v>
   <i name="OFIELD_Q6_NEAR">      0.00000000</i>
   <i name="OFIELD_Q6_FAR">      0.00000000</i>
   <i name="OFIELD_A">      0.00000000</i>
  </separator>
 </parameters>
 <atominfo>
  <atoms>      36 </atoms>
  <types>       3 </types>
  <array name="atoms" >
   <dimension dim="1">ion</dimension>
   <field type="string">element</field>
   <field type="int">atomtype</field>
   <set>
    <rc><c>Fe</c><c>   1</c></rc>
    <rc><c>Fe</c><c>   1</c></rc>
    <rc><c>Fe</c><c>   1</c></rc>
    <rc><c>Fe</c><c>   1</c></rc>
    <rc><c>Fe</c><c>   1</c></rc>
    <rc><c>Fe</c><c>   1</c></rc>
    <rc><c>Fe</c><c>   1</c></rc>
    <rc><c>Fe</c><c>   1</c></rc>
    <rc><c>Fe</c><c>   1</c></rc>
    <rc><c>Fe</c><c>   1</c></rc>
    <rc><c>Fe</c><c>   1</c></rc>
    <rc><c>Fe</c><c>   1</c></rc>
    <rc><c>O </c><c>   2</c></rc>
    <rc><c>O </c><c>   2</c></rc>
    <rc><c>F </c><c>   3</c></rc>
    <rc><c>F </c><c>   3</c></rc>
    <rc><c>F </c><c>   3</c></rc>
    <rc><c>F </c><c>   3</c></rc>
    <rc><c>F </c><c>   3</c></rc>
    <rc><c>F </c><c>   3</c></rc>
    <rc><c>F </c><c>   3</c></rc>
    <rc><c>F </c><c>   3</c></rc>
    <rc><c>F </c><c>   3</c></rc>
    <rc><c>F </c><c>   3</c></rc>
    <rc><c>F </c><c>   3</c></rc>
    <rc><c>F </c><c>   3</c></rc>
    <rc><c>F </c><c>   3</c></rc>
    <rc><c>F </c><c>   3</c></rc>
    <rc><c>F </c><c>   3</c></rc>
    <rc><c>F </c><c>   3</c></rc>
    <rc><c>F </c><c>   3</c></rc>
    <rc><c>F </c><c>   3</c></rc>
    <rc><c>F </c><c>   3</c></rc>
    <rc><c>F </c><c>   3</c></rc>
    <rc><c>F </c><c>   3</c></rc>
    <rc><c>F </c><c>   3</c></rc>
   </set>
  </array>
  <array name="atomtypes" >
   <dimension dim="1">type</dimension>
   <field type="int">atomspertype</field>
   <field type="string">element</field>
   <field>mass</field>
   <field>valence</field>
   <field type="string">pseudopotential</field>
   <set>
    <rc><c>  12</c><c>Fe</c><c>     55.84700000</c><c>      8.00000000</c><c>  PAW_PBE Fe 06Sep2000                  </c></rc>
    <rc><c>   2</c><c>O </c><c>     16.00000000</c><c>      6.00000000</c><c>  PAW_PBE O 08Apr2002                   </c></rc>
    <rc><c>  22</c><c>F </c><c>     18.99800000</c><c>      7.00000000</c><c>  PAW_PBE F 08Apr2002                   </c></rc>
   </set>
  </array>
 </atominfo>
 <structure name="initialpos" >
  <crystal>
   <varray name="basis" >
    <v>       3.27773000       0.01589200       0.01689000 </v>
    <v>       0.00000000      20.54938400       0.00000000 </v>
    <v>       0.00000000       0.00000000       6.79221100 </v>
   </varray>
   <i name="volume">    457.49162976 </i>
   <varray name="rec_basis" >
    <v>       0.30508919       0.00000000       0.00000000 </v>
    <v>      -0.00023594       0.04866326       0.00000000 </v>
    <v>      -0.00075866       0.00000000       0.14722746 </v>
   </varray>
  </crystal>
  <varray name="positions" >
   <v>       0.00000000       0.16671900       0.49907700 </v>
   <v>       0.00000000       0.83328100       0.50139100 </v>
   <v>       0.00000000       0.66671900       0.00139100 </v>
   <v>       0.00000000       0.33328100       0.00880500 </v>
   <v>       0.50000000       0.16602100       0.00000400 </v>
   <v>       0.49046500       0.83397900       0.00000400 </v>
   <v>       0.50000000       0.66602100       0.50000400 </v>
   <v>       0.50000000       0.33397900       0.50000400 </v>
   <v>       0.00000000       0.00000000       0.01216200 </v>
   <v>       0.00000000       0.50000000       0.51216200 </v>
   <v>       0.50000000       0.00000000       0.47240000 </v>
   <v>       0.50000000       0.50000000       0.97240000 </v>
   <v>       0.00000000       0.00000000       0.31436200 </v>
   <v>       0.00000000       0.50000000       0.81436200 </v>
   <v>       0.00000000       0.16816900       0.21012900 </v>
   <v>       0.00000000       0.83183100       0.20983800 </v>
   <v>       0.00000000       0.66816900       0.70329900 </v>
   <v>       0.00000000       0.33183100       0.69761400 </v>
   <v>       0.00000000       0.16993100       0.79934600 </v>
   <v>       0.00000000       0.83161800       0.79934600 </v>
   <v>       0.00000000       0.66838200       0.29934600 </v>
   <v>       0.00000000       0.33161800       0.29934600 </v>
   <v>       0.50000000       0.06837200       0.99633700 </v>
   <v>       0.50000000       0.93162800       0.99633700 </v>
   <v>       0.50000000       0.56837200       0.49633700 </v>
   <v>       0.49405000       0.42253000       0.49633700 </v>
   <v>       0.50000000       0.09818400       0.50567900 </v>
   <v>       0.50000000       0.90898900       0.50567900 </v>
   <v>       0.50000000       0.59818400       0.00567900 </v>
   <v>       0.49266400       0.40181600       0.00567900 </v>
   <v>       0.49531600       0.23406000       0.50152500 </v>
   <v>       0.50000000       0.76594000       0.50152500 </v>
   <v>       0.50000000       0.73406000       0.00152500 </v>
   <v>       0.50000000       0.26594000       0.00152500 </v>
   <v>       0.00000000       0.00000000       0.69474100 </v>
   <v>       0.00000000       0.50000000       0.19474100 </v>
  </varray>
 </structure>
 <calculation>
  <scstep>
   <time name="diag">    0.27    0.43</time>
   <time name="diis">    0.54    0.65</time>
   <time name="orth">    0.05    0.10</time>
   <time name="total">    1.08    1.56</time>
   <energy>
    <i name="alphaZ">    936.35028920 </i>
    <i name="ewald"> -15939.29968544 </i>
    <i name="hartreedc">  -6725.84905179 </i>
    <i name="XCdc">    901.86251282 </i>
    <i name="pawpsdc">  19213.82102697 </i>
    <i name="pawaedc"> -19422.08171028 </i>
    <i name="eentropy">     -0.02535501 </i>
    <i name="bandstr">   1810.14263002 </i>
    <i name="atom">  22504.09828397 </i>
    <i name="e_fr_energy">   3279.01894044 </i>
    <i name="e_wo_entrp">   3279.04429545 </i>
    <i name="e_0_energy">   3279.02739211 </i>
   </energy>
  </scstep>
  <scstep>
   <time name="diag">    0.45    0.73</time>
   <time name="diis">    0.34    0.56</time>
   <time name="orth">    0.04    0.04</time>
   <time name="total">    0.83    1.33</time>
   <energy>
    <i name="e_fr_energy">   1039.02436011 </i>
    <i name="e_wo_entrp">   1039.11017904 </i>
    <i name="e_0_energy">   1039.05296642 </i>
   </energy>
  </scstep>
  <scstep>
   <time name="diag">    0.22    0.22</time>
   <time name="diis">    0.63    0.64</time>
   <time name="orth">    0.15    0.15</time>
   <time name="total">    1.01    1.01</time>
   <energy>
    <i name="e_fr_energy">    361.17930007 </i>
    <i name="e_wo_entrp">    361.09054260 </i>
    <i name="e_0_energy">    361.14971425 </i>
   </energy>
  </scstep>
  <scstep>
   <time name="diag">    0.23    0.23</time>
   <time name="diis">    0.66    0.69</time>
   <time name="orth">    0.03    0.07</time>
   <time name="total">    0.92    1.00</time>
   <energy>
    <i name="e_fr_energy">     69.71563701 </i>
    <i name="e_wo_entrp">     69.73542365 </i>
    <i name="e_0_energy">     69.72223256 </i>
   </energy>
  </scstep>
  <scstep>
   <time name="diag">    0.17    0.21</time>
   <time name="diis">    0.37    0.56</time>
   <time name="orth">    0.12    0.21</time>
   <time name="total">    0.67    0.98</time>
   <energy>
    <i name="e_fr_energy">    -89.90227110 </i>
    <i name="e_wo_entrp">    -90.05154099 </i>
    <i name="e_0_energy">    -89.95202773 </i>
   </energy>
  </scstep>
  <scstep>
   <time name="diag">    0.21    0.36</time>
   <time name="diis">    0.42    0.59</time>
   <time name="orth">    0.05    0.09</time>
   <time name="total">    0.68    1.03</time>
   <energy>
    <i name="e_fr_energy">   -161.14598363 </i>
    <i name="e_wo_entrp">   -161.26369593 </i>
    <i name="e_0_energy">   -161.18522106 </i>
   </energy>
  </scstep>
  <scstep>
   <time name="diag">    0.28    0.47</time>
   <time name="diis">    0.37    0.50</time>
   <time name="orth">    0.12    0.19</time>
   <time name="total">    0.78    1.17</time>
   <energy>
    <i name="e_fr_energy">   -194.77834386 </i>
    <i name="e_wo_entrp">   -194.94006932 </i>
    <i name="e_0_energy">   -194.83225235 </i>
   </energy>
  </scstep>
  <scstep>
   <time name="diag">    0.26    0.37</time>
   <time name="diis">    0.38    0.48</time>
   <time name="orth">    0.03    0.04</time>
   <time name="total">    0.67    0.88</time>
   <energy>
    <i name="e_fr_energy">   -208.17344763 </i>
    <i name="e_wo_entrp">   -208.37868452 </i>
    <i name="e_0_energy">   -208.24185993 </i>
   </energy>
  </scstep>
  <scstep>
   <time name="diag">    0.28    0.34</time>
   <time name="diis">    1.32    1.71</time>
   <time name="orth">    0.05    0.06</time>
   <time name="total">    1.65    2.11</time>
   <energy>
    <i name="e_fr_energy">   -221.82802291 </i>
    <i name="e_wo_entrp">   -222.04751539 </i>
    <i name="e_0_energy">   -221.90118707 </i>
   </energy>
  </scstep>
  <scstep>
   <time name="diag">    0.23    0.34</time>
   <time name="diis">    1.13    1.69</time>
   <time name="orth">    0.07    0.10</time>
   <time name="total">    1.43    2.13</time>
   <energy>
    <i name="e_fr_energy">   -222.17856323 </i>
    <i name="e_wo_entrp">   -222.34726021 </i>
    <i name="e_0_energy">   -222.23479555 </i>
   </energy>
  </scstep>
  <scstep>
   <time name="diag">    0.22    0.31</time>
   <time name="diis">    1.03    1.41</time>
   <time name="orth">    0.03    0.06</time>
   <time name="total">    1.28    1.78</time>
   <energy>
    <i name="e_fr_energy">   -222.46789078 </i>
    <i name="e_wo_entrp">   -222.61522789 </i>
    <i name="e_0_energy">   -222.51700315 </i>
   </energy>
  </scstep>
  <scstep>
   <time name="diag">    0.17    0.24</time>
   <time name="diis">    0.93    1.62</time>
   <time name="orth">    0.10    0.10</time>
   <time name="total">    1.43    2.24</time>
   <energy>
    <i name="e_fr_energy">   -222.60156575 </i>
    <i name="e_wo_entrp">   -222.73739429 </i>
    <i name="e_0_energy">   -222.64684193 </i>
   </energy>
  </scstep>
  <scstep>
   <time name="diag">    0.24    0.24</time>
   <time name="diis">    0.79    1.13</time>
   <time name="orth">    0.09    0.13</time>
   <time name="total">    1.44    2.01</time>
   <energy>
    <i name="e_fr_energy">   -216.46608402 </i>
    <i name="e_wo_entrp">   -216.44986668 </i>
    <i name="e_0_energy">   -216.46067824 </i>
   </energy>
  </scstep>
  <scstep>
   <time name="diag">    0.15    0.25</time>
   <time name="diis">    0.87    1.24</time>
   <time name="orth">    0.09    0.10</time>
   <time name="total">    1.28    1.89</time>
   <energy>
    <i name="e_fr_energy">   -309.43800019 </i>
    <i name="e_wo_entrp">   -309.34710016 </i>
    <i name="e_0_energy">   -309.40770018 </i>
   </energy>
  </scstep>
  <scstep>
   <time name="diag">    0.17    0.27</time>
   <time name="diis">    0.78    1.08</time>
   <time name="orth">    0.07    0.13</time>
   <time name="total">    1.21    1.77</time>
   <energy>
    <i name="e_fr_energy">   -226.50508491 </i>
    <i name="e_wo_entrp">   -226.56561166 </i>
    <i name="e_0_energy">   -226.52526049 </i>
   </energy>
  </scstep>
  <scstep>
   <time name="diag">    0.26    0.36</time>
   <time name="diis">    0.85    1.12</time>
   <time name="orth">    0.13    0.20</time>
   <time name="total">    1.36    1.93</time>
   <energy>
    <i name="e_fr_energy">   -212.17507091 </i>
    <i name="e_wo_entrp">   -212.09902673 </i>
    <i name="e_0_energy">   -212.14972285 </i>
   </energy>
  </scstep>
  <scstep>
   <time name="diag">    0.15    0.22</time>
   <time name="diis">    0.89    1.13</time>
   <time name="orth">    0.05    0.06</time>
   <time name="total">    1.32    1.74</time>
   <energy>
    <i name="e_fr_energy">   -213.57304210 </i>
    <i name="e_wo_entrp">   -213.52146098 </i>
    <i name="e_0_energy">   -213.55584840 </i>
   </energy>
  </scstep>
  <scstep>
   <time name="diag">    0.15    0.24</time>
   <time name="diis">    0.70    1.04</time>
   <time name="orth">    0.06    0.06</time>
   <time name="total">    1.07    1.58</time>
   <energy>
    <i name="e_fr_energy">   -284.95726878 </i>
    <i name="e_wo_entrp">   -284.96853396 </i>
    <i name="e_0_energy">   -284.96102384 </i>
   </energy>
  </scstep>
  <scstep>
   <time name="diag">    0.18    0.18</time>
   <time name="diis">    0.68    1.03</time>
   <time name="orth">    0.10    0.15</time>
   <time name="total">    1.16    1.58</time>
   <energy>
    <i name="e_fr_energy">   -257.64021958 </i>
    <i name="e_wo_entrp">   -257.59949028 </i>
    <i name="e_0_energy">   -257.62664315 </i>
   </energy>
  </scstep>
  <scstep>
   <time name="diag">    0.16    0.31</time>
   <time name="diis">    0.77    1.06</time>
   <time name="orth">    0.03    0.04</time>
   <time name="total">    1.11    1.60</time>
   <energy>
    <i name="e_fr_energy">   -218.74888182 </i>
    <i name="e_wo_entrp">   -218.58628136 </i>
    <i name="e_0_energy">   -218.69468166 </i>
   </energy>
  </scstep>
  <scstep>
   <time name="diag">    0.25    0.37</time>
   <time name="diis">    0.81    0.99</time>
   <time name="orth">    0.09    0.14</time>
   <time name="total">    1.41    1.96</time>
   <energy>
    <i name="e_fr_energy">   -217.22738320 </i>
    <i name="e_wo_entrp">   -217.18989286 </i>
    <i name="e_0_energy">   -217.21488642 </i>
   </energy>
  </scstep>
  <scstep>
   <time name="diag">    0.24    0.35</time>
   <time name="diis">    0.73    1.04</time>
   <time name="orth">    0.09    0.14</time>
   <time name="total">    1.28    1.87</time>
   <energy>
    <i name="e_fr_energy">   -201.80857353 </i>
    <i name="e_wo_entrp">   -201.84931105 </i>
    <i name="e_0_energy">   -201.82215270 </i>
   </energy>
  </scstep>
  <scstep>
   <time name="diag">    0.19    0.23</time>
   <time name="diis">    0.71    1.03</time>
   <time name="orth">    0.04    0.08</time>
   <time name="total">    1.13    1.58</time>
   <energy>
    <i name="e_fr_energy">   -211.16270249 </i>
    <i name="e_wo_entrp">   -211.02443664 </i>
    <i name="e_0_energy">   -211.11661387 </i>
   </energy>
  </scstep>
  <scstep>
   <time name="diag">    0.20    0.28</time>
   <time name="diis">    0.77    1.13</time>
   <time name="orth">    0.05    0.06</time>
   <time name="total">    1.23    1.76</time>
   <energy>
    <i name="e_fr_energy">   -194.73075650 </i>
    <i name="e_wo_entrp">   -194.64085537 </i>
    <i name="e_0_energy">   -194.70078946 </i>
   </energy>
  </scstep>
  <scstep>
   <time name="diag">    0.20    0.25</time>
   <time name="diis">    0.68    1.12</time>
   <time name="orth">    0.12    0.13</time>
   <time name="total">    1.10    1.64</time>
   <energy>
    <i name="e_fr_energy">   -193.15945334 </i>
    <i name="e_wo_entrp">   -193.03271046 </i>
    <i name="e_0_energy">   -193.11720571 </i>
   </energy>
  </scstep>
  <scstep>
   <time name="diag">    0.22    0.32</time>
   <time name="diis">    0.87    1.15</time>
   <time name="orth">    0.12    0.20</time>
   <time name="total">    1.35    1.90</time>
   <energy>
    <i name="e_fr_energy">   -191.20995404 </i>
    <i name="e_wo_entrp">   -191.10825864 </i>
    <i name="e_0_energy">   -191.17605558 </i>
   </energy>
  </scstep>
  <scstep>
   <time name="diag">    0.17    0.35</time>
   <time name="diis">    0.74    1.01</time>
   <time name="orth">    0.05    0.05</time>
   <time name="total">    1.21    1.74</time>
   <energy>
    <i name="e_fr_energy">   -190.88033650 </i>
    <i name="e_wo_entrp">   -191.01675404 </i>
    <i name="e_0_energy">   -190.92580901 </i>
   </energy>
  </scstep>
  <scstep>
   <time name="diag">    0.16    0.22</time>
   <time name="diis">    0.73    1.05</time>
   <time name="orth">    0.02    0.02</time>
   <time name="total">    1.08    1.56</time>
   <energy>
    <i name="e_fr_energy">   -189.04360128 </i>
    <i name="e_wo_entrp">   -189.06302856 </i>
    <i name="e_0_energy">   -189.05007704 </i>
   </energy>
  </scstep>
  <scstep>
   <time name="diag">    0.18    0.25</time>
   <time name="diis">    0.75    1.07</time>
   <time name="orth">    0.07    0.09</time>
   <time name="total">    1.15    1.69</time>
   <energy>
    <i name="e_fr_energy">   -189.09564532 </i>
    <i name="e_wo_entrp">   -189.23568853 </i>
    <i name="e_0_energy">   -189.14232639 </i>
   </energy>
  </scstep>
  <scstep>
   <time name="diag">    0.20    0.24</time>
   <time name="diis">    0.76    1.15</time>
   <time name="orth">    0.08    0.10</time>
   <time name="total">    1.24    1.72</time>
   <energy>
    <i name="e_fr_energy">   -188.65691564 </i>
    <i name="e_wo_entrp">   -188.69679769 </i>
    <i name="e_0_energy">   -188.67020966 </i>
   </energy>
  </scstep>
  <scstep>
   <time name="diag">    0.18    0.27</time>
   <time name="diis">    0.83    1.15</time>
   <time name="orth">    0.06    0.09</time>
   <time name="total">    1.28    1.90</time>
   <energy>
    <i name="e_fr_energy">   -188.61636275 </i>
    <i name="e_wo_entrp">   -188.65496271 </i>
    <i name="e_0_energy">   -188.62922940 </i>
   </energy>
  </scstep>
  <scstep>
   <time name="diag">    0.16    0.24</time>
   <time name="diis">    0.68    1.19</time>
   <time name="orth">    0.15    0.15</time>
   <time name="total">    1.24    1.86</time>
   <energy>
    <i name="e_fr_energy">   -189.11270333 </i>
    <i name="e_wo_entrp">   -189.23597691 </i>
    <i name="e_0_energy">   -189.15379453 </i>
   </energy>
  </scstep>
  <scstep>
   <time name="diag">    0.18    0.27</time>
   <time name="diis">    0.74    0.99</time>
   <time name="orth">    0.08    0.10</time>
   <time name="total">    1.31    1.89</time>
   <energy>
    <i name="e_fr_energy">   -188.76981771 </i>
    <i name="e_wo_entrp">   -188.79873727 </i>
    <i name="e_0_energy">   -188.77945756 </i>
   </energy>
  </scstep>
  <scstep>
   <time name="diag">    0.15    0.22</time>
   <time name="diis">    0.85    1.20</time>
   <time name="orth">    0.04    0.05</time>
   <time name="total">    1.20    1.71</time>
   <energy>
    <i name="e_fr_energy">   -188.76237115 </i>
    <i name="e_wo_entrp">   -188.73444129 </i>
    <i name="e_0_energy">   -188.75306120 </i>
   </energy>
  </scstep>
  <scstep>
   <time name="diag">    0.25    0.35</time>
   <time name="diis">    0.72    1.11</time>
   <time name="orth">    0.02    0.03</time>
   <time name="total">    1.16    1.74</time>
   <energy>
    <i name="e_fr_energy">   -188.74554485 </i>
    <i name="e_wo_entrp">   -188.70663160 </i>
    <i name="e_0_energy">   -188.73257377 </i>
   </energy>
  </scstep>
  <scstep>
   <time name="diag">    0.15    0.17</time>
   <time name="diis">    0.76    1.09</time>
   <time name="orth">    0.04    0.04</time>
   <time name="total">    1.17    1.67</time>
   <energy>
    <i name="e_fr_energy">   -188.68202968 </i>
    <i name="e_wo_entrp">   -188.71504949 </i>
    <i name="e_0_energy">   -188.69303628 </i>
   </energy>
  </scstep>
  <scstep>
   <time name="diag">    0.13    0.22</time>
   <time name="diis">    0.89    1.10</time>
   <time name="orth">    0.06    0.08</time>
   <time name="total">    1.28    1.74</time>
   <energy>
    <i name="e_fr_energy">   -188.65311404 </i>
    <i name="e_wo_entrp">   -188.65297991 </i>
    <i name="e_0_energy">   -188.65306933 </i>
   </energy>
  </scstep>
  <scstep>
   <time name="diag">    0.13    0.20</time>
   <time name="diis">    0.64    1.03</time>
   <time name="orth">    0.07    0.15</time>
   <time name="total">    1.01    1.60</time>
   <energy>
    <i name="e_fr_energy">   -188.63077936 </i>
    <i name="e_wo_entrp">   -188.64240077 </i>
    <i name="e_0_energy">   -188.63465316 </i>
   </energy>
  </scstep>
  <scstep>
   <time name="diag">    0.11    0.18</time>
   <time name="diis">    0.80    1.09</time>
   <time name="orth">    0.03    0.06</time>
   <time name="total">    1.07    1.52</time>
   <energy>
    <i name="e_fr_energy">   -188.59371249 </i>
    <i name="e_wo_entrp">   -188.59347614 </i>
    <i name="e_0_energy">   -188.59363370 </i>
   </energy>
  </scstep>
  <scstep>
   <time name="diag">    0.15    0.20</time>
   <time name="diis">    0.75    1.09</time>
   <time name="orth">    0.08    0.08</time>
   <time name="total">    1.14    1.57</time>
   <energy>
    <i name="e_fr_energy">   -188.59046189 </i>
    <i name="e_wo_entrp">   -188.59941280 </i>
    <i name="e_0_energy">   -188.59344553 </i>
   </energy>
  </scstep>
  <scstep>
   <time name="diag">    0.16    0.20</time>
   <time name="diis">    0.71    1.05</time>
   <time name="orth">    0.03    0.05</time>
   <time name="total">    1.10    1.57</time>
   <energy>
    <i name="e_fr_energy">   -188.55788689 </i>
    <i name="e_wo_entrp">   -188.58641076 </i>
    <i name="e_0_energy">   -188.56739485 </i>
   </energy>
  </scstep>
  <scstep>
   <time name="diag">    0.25    0.36</time>
   <time name="diis">    0.68    0.94</time>
   <time name="orth">    0.06    0.12</time>
   <time name="total">    1.16    1.68</time>
   <energy>
    <i name="e_fr_energy">   -188.55254843 </i>
    <i name="e_wo_entrp">   -188.57851393 </i>
    <i name="e_0_energy">   -188.56120360 </i>
   </energy>
  </scstep>
  <scstep>
   <time name="diag">    0.19    0.23</time>
   <time name="diis">    0.59    0.99</time>
   <time name="orth">    0.14    0.19</time>
   <time name="total">    1.23    1.92</time>
   <energy>
    <i name="e_fr_energy">   -188.54801293 </i>
    <i name="e_wo_entrp">   -188.58182619 </i>
    <i name="e_0_energy">   -188.55928402 </i>
   </energy>
  </scstep>
  <scstep>
   <time name="diag">    0.39    0.61</time>
   <time name="diis">    0.75    1.14</time>
   <time name="orth">    0.05    0.07</time>
   <time name="total">    1.67    2.59</time>
   <energy>
    <i name="e_fr_energy">   -188.54565337 </i>
    <i name="e_wo_entrp">   -188.58345903 </i>
    <i name="e_0_energy">   -188.55825526 </i>
   </energy>
  </scstep>
  <scstep>
   <time name="diag">    0.26    0.33</time>
   <time name="diis">    0.91    1.33</time>
   <time name="orth">    0.03    0.05</time>
   <time name="total">    1.52    2.21</time>
   <energy>
    <i name="e_fr_energy">   -188.54597611 </i>
    <i name="e_wo_entrp">   -188.58387147 </i>
    <i name="e_0_energy">   -188.55860790 </i>
   </energy>
  </scstep>
  <scstep>
   <time name="diag">    0.14    0.18</time>
   <time name="diis">    0.59    0.90</time>
   <time name="orth">    0.06    0.06</time>
   <time name="total">    1.00    1.51</time>
   <energy>
    <i name="e_fr_energy">   -188.54704933 </i>
    <i name="e_wo_entrp">   -188.58554757 </i>
    <i name="e_0_energy">   -188.55988207 </i>
   </energy>
  </scstep>
  <scstep>
   <time name="diag">    0.14    0.22</time>
   <time name="diis">    0.47    0.66</time>
   <time name="orth">    0.03    0.04</time>
   <time name="total">    0.82    1.27</time>
   <energy>
    <i name="e_fr_energy">   -188.54569699 </i>
    <i name="e_wo_entrp">   -188.58389771 </i>
    <i name="e_0_energy">   -188.55843056 </i>
   </energy>
  </scstep>
  <scstep>
   <time name="diag">    0.21    0.31</time>
   <time name="diis">    0.45    0.64</time>
   <time name="orth">    0.03    0.05</time>
   <time name="total">    0.86    1.26</time>
   <energy>
    <i name="e_fr_energy">   -188.54607278 </i>
    <i name="e_wo_entrp">   -188.58388136 </i>
    <i name="e_0_energy">   -188.55867564 </i>
   </energy>
  </scstep>
  <scstep>
   <time name="diag">    0.24    0.29</time>
   <time name="diis">    0.47    0.53</time>
   <time name="orth">    0.04    0.05</time>
   <time name="total">    0.96    1.19</time>
   <energy>
    <i name="e_fr_energy">   -188.54653278 </i>
    <i name="e_wo_entrp">   -188.58439920 </i>
    <i name="e_0_energy">   -188.55915492 </i>
   </energy>
  </scstep>
  <scstep>
   <time name="diag">    0.16    0.24</time>
   <time name="diis">    0.34    0.50</time>
   <time name="orth">    0.05    0.07</time>
   <time name="total">    0.70    0.97</time>
   <energy>
    <i name="alphaZ">    936.35028920 </i>
    <i name="ewald"> -15939.29968544 </i>
    <i name="hartreedc">  -6885.14041896 </i>
    <i name="XCdc">    918.15942342 </i>
    <i name="pawpsdc">  22420.54440055 </i>
    <i name="pawaedc"> -22631.07227617 </i>
    <i name="eentropy">      0.03743562 </i>
    <i name="bandstr">  -1512.22388783 </i>
    <i name="atom">  22504.09828397 </i>
    <i name="e_fr_energy">   -188.54643564 </i>
    <i name="e_wo_entrp">   -188.58387126 </i>
    <i name="e_0_energy">   -188.55891418 </i>
   </energy>
  </scstep>
  <structure>
   <crystal>
    <varray name="basis" >
     <v>       3.27773000       0.01589200       0.01689000 </v>
     <v>       0.00000000      20.54938400       0.00000000 </v>
     <v>       0.00000000       0.00000000       6.79221100 </v>
    </varray>
    <i name="volume">    457.49162976 </i>
    <varray name="rec_basis" >
     <v>       0.30508919       0.00000000       0.00000000 </v>
     <v>      -0.00023594       0.04866326       0.00000000 </v>
     <v>      -0.00075866       0.00000000       0.14722746 </v>
    </varray>
   </crystal>
   <varray name="positions" >
    <v>       0.00000000       0.16671900       0.49907700 </v>
    <v>       0.00000000       0.83328100       0.50139100 </v>
    <v>       0.00000000       0.66671900       0.00139100 </v>
    <v>       0.00000000       0.33328100       0.00880500 </v>
    <v>       0.50000000       0.16602100       0.00000400 </v>
    <v>       0.49046500       0.83397900       0.00000400 </v>
    <v>       0.50000000       0.66602100       0.50000400 </v>
    <v>       0.50000000       0.33397900       0.50000400 </v>
    <v>       0.00000000       0.00000000       0.01216200 </v>
    <v>       0.00000000       0.50000000       0.51216200 </v>
    <v>       0.50000000       0.00000000       0.47240000 </v>
    <v>       0.50000000       0.50000000       0.97240000 </v>
    <v>       0.00000000       0.00000000       0.31436200 </v>
    <v>       0.00000000       0.50000000       0.81436200 </v>
    <v>       0.00000000       0.16816900       0.21012900 </v>
    <v>       0.00000000       0.83183100       0.20983800 </v>
    <v>       0.00000000       0.66816900       0.70329900 </v>
    <v>       0.00000000       0.33183100       0.69761400 </v>
    <v>       0.00000000       0.16993100       0.79934600 </v>
    <v>       0.00000000       0.83161800       0.79934600 </v>
    <v>       0.00000000       0.66838200       0.29934600 </v>
    <v>       0.00000000       0.33161800       0.29934600 </v>
    <v>       0.50000000       0.06837200       0.99633700 </v>
    <v>       0.50000000       0.93162800       0.99633700 </v>
    <v>       0.50000000       0.56837200       0.49633700 </v>
    <v>       0.49405000       0.42253000       0.49633700 </v>
    <v>       0.50000000       0.09818400       0.50567900 </v>
    <v>       0.50000000       0.90898900       0.50567900 </v>
    <v>       0.50000000       0.59818400       0.00567900 </v>
    <v>       0.49266400       0.40181600       0.00567900 </v>
    <v>       0.49531600       0.23406000       0.50152500 </v>
    <v>       0.50000000       0.76594000       0.50152500 </v>
    <v>       0.50000000       0.73406000       0.00152500 </v>
    <v>       0.50000000       0.26594000       0.00152500 </v>
    <v>       0.00000000       0.00000000       0.69474100 </v>
    <v>       0.00000000       0.50000000       0.19474100 </v>
   </varray>
  </structure>
  <varray name="forces" >
   <v>      -0.04044556      -0.03024914       0.39745105 </v>
   <v>       0.09494171       0.34188163       0.16356845 </v>
   <v>       0.01976712      -0.08911122       0.06696575 </v>
   <v>      -0.06508642       0.08642741      -0.49462099 </v>
   <v>      -0.00470488       0.36719935       0.20017728 </v>
   <v>       0.23086027      -0.25218198       0.23666399 </v>
   <v>      -0.00379225       0.28426839       0.06762486 </v>
   <v>      -0.08777819      -1.56238002       0.05180182 </v>
   <v>       0.04121265      -0.01574374       1.02155545 </v>
   <v>      -0.01350878      -0.21827015       1.16633984 </v>
   <v>      -0.00842337       0.37721499       0.10442157 </v>
   <v>      -0.06445780      -0.03531742       0.06541206 </v>
   <v>      -0.02123154       0.16859504      -1.25865945 </v>
   <v>      -0.03138217       0.01447808      -1.28298346 </v>
   <v>       0.01711047      -0.22883035      -0.57899433 </v>
   <v>      -0.08253890       0.17699952      -0.41715572 </v>
   <v>       0.01889864      -0.18896726      -0.17276277 </v>
   <v>       0.00337085       0.14074647       0.08713859 </v>
   <v>      -0.02319116      -0.29842803       0.09284076 </v>
   <v>      -0.13221068       0.17699468       0.02842996 </v>
   <v>      -0.01903946      -0.18391426       0.11004123 </v>
   <v>      -0.03006165       0.13717914       0.24039774 </v>
   <v>       0.01003675      -0.45748572       0.19335960 </v>
   <v>      -0.09502990       0.45024727       0.20742684 </v>
   <v>       0.03357229      -0.38333845       0.17393200 </v>
   <v>       0.06476959       2.06382354       0.12591234 </v>
   <v>      -0.00341404       0.85072871      -0.22024978 </v>
   <v>       0.02185964      -1.55189610      -0.09201508 </v>
   <v>      -0.01021964       0.81276388      -0.18705729 </v>
   <v>       0.12729489      -0.80835577      -0.07304289 </v>
   <v>       0.09959924      -0.42987854      -0.05963954 </v>
   <v>      -0.02004588       0.23189697      -0.00880214 </v>
   <v>      -0.05984769      -0.35115079      -0.02773410 </v>
   <v>       0.01006599       0.36807286       0.08079157 </v>
   <v>       0.01626375       0.04851873      -0.02916850 </v>
   <v>       0.00678612      -0.01253773       0.02063328 </v>
  </varray>
  <varray name="stress" >
   <v>    -249.34164700      -1.26773953      -0.55308727 </v>
   <v>      -1.26773886    -245.08403660      -0.27743465 </v>
   <v>      -0.55308754      -0.27743353    -281.82475139 </v>
  </varray>
  <energy>
   <i name="e_fr_energy">   -188.54643564 </i>
   <i name="e_wo_entrp">   -188.55891418 </i>
   <i name="e_0_energy">      0.03743562 </i>
  </energy>
  <time name="totalsc">   60.37   86.10</time>
  <eigenvalues>
   <array>
    <dimension dim="1">band</dimension>
    <dimension dim="2">kpoint</dimension>
    <dimension dim="3">spin</dimension>
    <field>eigene</field>
    <field>occ</field>
    <set>
     <set comment="spin 1">
      <set comment="kpoint 1">
       <r>  -22.7927    1.0000 </r>
       <r>  -22.7414    1.0000 </r>
       <r>  -22.6303    1.0000 </r>
       <r>  -22.5859    1.0000 </r>
       <r>  -22.4102    1.0000 </r>
       <r>  -22.3946    1.0000 </r>
       <r>  -22.3614    1.0000 </r>
       <r>  -22.3457    1.0000 </r>
       <r>  -22.3076    1.0000 </r>
       <r>  -22.3018    1.0000 </r>
       <r>  -22.2951    1.0000 </r>
       <r>  -22.2710    1.0000 </r>
       <r>  -22.2630    1.0000 </r>
       <r>  -22.2314    1.0000 </r>
       <r>  -22.2158    1.0000 </r>
       <r>  -22.1892    1.0000 </r>
       <r>  -22.1746    1.0000 </r>
       <r>  -22.1576    1.0000 </r>
       <r>  -22.1520    1.0000 </r>
       <r>  -22.1281    1.0000 </r>
       <r>  -21.0151    1.0000 </r>
       <r>  -20.9224    1.0000 </r>
       <r>  -16.5636    1.0000 </r>
       <r>  -16.5367    1.0000 </r>
       <r>   -6.2045    1.0000 </r>
       <r>   -6.1056    1.0000 </r>
       <r>   -5.9390    1.0000 </r>
       <r>   -5.8693    1.0000 </r>
       <r>   -5.7045    1.0000 </r>
       <r>   -5.4938    1.0000 </r>
       <r>   -5.4226    1.0000 </r>
       <r>   -5.3795    1.0000 </r>
       <r>   -5.3049    1.0000 </r>
       <r>   -5.0953    1.0000 </r>
       <r>   -4.6723    1.0000 </r>
       <r>   -4.6297    1.0000 </r>
       <r>   -4.6100    1.0000 </r>
       <r>   -4.5836    1.0000 </r>
       <r>   -4.5173    1.0000 </r>
       <r>   -4.4546    1.0000 </r>
       <r>   -4.3849    1.0000 </r>
       <r>   -4.3608    1.0000 </r>
       <r>   -4.3553    1.0000 </r>
       <r>   -4.3406    1.0000 </r>
       <r>   -4.3129    1.0000 </r>
       <r>   -4.3081    1.0000 </r>
       <r>   -4.2807    1.0000 </r>
       <r>   -4.2781    1.0000 </r>
       <r>   -4.2672    1.0000 </r>
       <r>   -4.2358    1.0000 </r>
       <r>   -4.2094    1.0000 </r>
       <r>   -4.1859    1.0000 </r>
       <r>   -4.1717    1.0000 </r>
       <r>   -4.1629    1.0000 </r>
       <r>   -4.1499    1.0000 </r>
       <r>   -4.1300    1.0000 </r>
       <r>   -4.0936    1.0000 </r>
       <r>   -4.0849    1.0000 </r>
       <r>   -4.0767    1.0000 </r>
       <r>   -4.0478    1.0000 </r>
       <r>   -3.9783    1.0000 </r>
       <r>   -3.9076    1.0000 </r>
       <r>   -3.8378    1.0000 </r>
       <r>   -3.7380    1.0000 </r>
       <r>   -3.6494    1.0000 </r>
       <r>   -3.6090    1.0000 </r>
       <r>   -3.5984    1.0000 </r>
       <r>   -3.5624    1.0000 </r>
       <r>   -3.5348    1.0000 </r>
       <r>   -3.4945    1.0000 </r>
       <r>   -3.4767    1.0000 </r>
       <r>   -3.4464    1.0000 </r>
       <r>   -3.2963    1.0000 </r>
       <r>   -3.2931    1.0000 </r>
       <r>   -3.2603    1.0000 </r>
       <r>   -3.2259    1.0000 </r>
       <r>   -3.2056    1.0000 </r>
       <r>   -3.1990    1.0000 </r>
       <r>   -3.1885    1.0000 </r>
       <r>   -3.1676    1.0000 </r>
       <r>   -3.1169    1.0000 </r>
       <r>   -3.0767    1.0000 </r>
       <r>   -3.0395    1.0000 </r>
       <r>   -2.9650    1.0000 </r>
       <r>   -2.8921    1.0000 </r>
       <r>   -2.8690    1.0000 </r>
       <r>   -2.7017    1.0000 </r>
       <r>   -2.6256    1.0000 </r>
       <r>   -2.1139    1.0000 </r>
       <r>   -2.0588    1.0000 </r>
       <r>   -2.0215    1.0000 </r>
       <r>   -1.9575    1.0000 </r>
       <r>   -1.8951    1.0000 </r>
       <r>   -1.8036    1.0000 </r>
       <r>   -1.3274    1.0000 </r>
       <r>   -1.2285    1.0000 </r>
       <r>    0.7611    1.0000 </r>
       <r>    0.8034    1.0000 </r>
       <r>    0.8362    1.0000 </r>
       <r>    0.8646    1.0000 </r>
       <r>    0.8889    1.0000 </r>
       <r>    0.9187    1.0000 </r>
       <r>    0.9336    1.0000 </r>
       <r>    0.9437    1.0000 </r>
       <r>    0.9526    1.0000 </r>
       <r>    0.9594    1.0000 </r>
       <r>    0.9753    1.0000 </r>
       <r>    1.0151    1.0000 </r>
       <r>    1.0452    1.0000 </r>
       <r>    1.0933    1.0000 </r>
       <r>    1.0951    1.0000 </r>
       <r>    1.1200    1.0000 </r>
       <r>    1.1355    1.0000 </r>
       <r>    1.1599    1.0001 </r>
       <r>    1.1904    1.0001 </r>
       <r>    1.1941    1.0002 </r>
       <r>    1.2067    1.0002 </r>
       <r>    1.2322    1.0004 </r>
       <r>    1.2365    1.0005 </r>
       <r>    1.2612    1.0008 </r>
       <r>    1.3104    1.0024 </r>
       <r>    1.3203    1.0029 </r>
       <r>    1.4094    1.0132 </r>
       <r>    1.4315    1.0176 </r>
       <r>    1.4728    1.0270 </r>
       <r>    1.5398    1.0351 </r>
       <r>    1.6035    1.0043 </r>
       <r>    1.6223    0.9814 </r>
       <r>    1.6876    0.8362 </r>
       <r>    1.7088    0.7671 </r>
       <r>    1.7526    0.5977 </r>
       <r>    1.7732    0.5115 </r>
       <r>    1.8295    0.2818 </r>
       <r>    1.8937    0.0850 </r>
       <r>    1.9076    0.0555 </r>
       <r>    1.9535   -0.0093 </r>
       <r>    1.9764   -0.0254 </r>
       <r>    1.9877   -0.0302 </r>
       <r>    2.0452   -0.0335 </r>
       <r>    2.0603   -0.0309 </r>
       <r>    2.0642   -0.0302 </r>
       <r>    2.1099   -0.0199 </r>
       <r>    2.1126   -0.0193 </r>
       <r>    2.1559   -0.0109 </r>
       <r>    2.1782   -0.0077 </r>
       <r>    2.2679   -0.0014 </r>
       <r>    2.2801   -0.0011 </r>
       <r>    2.3020   -0.0006 </r>
       <r>    2.3086   -0.0005 </r>
       <r>    2.3829   -0.0001 </r>
       <r>    2.4800   -0.0000 </r>
       <r>    2.8409   -0.0000 </r>
       <r>    3.0344   -0.0000 </r>
       <r>    3.1563   -0.0000 </r>
       <r>    3.1664   -0.0000 </r>
       <r>    3.1959   -0.0000 </r>
       <r>    4.0336   -0.0000 </r>
       <r>    4.5398   -0.0000 </r>
       <r>    4.8276   -0.0000 </r>
       <r>    6.2351   -0.0000 </r>
      </set>
     </set>
    </set>
   </array>
  </eigenvalues>
  <separator name="orbital magnetization" >
   <v name="MAGDIPOLOUT">      0.00000000      0.00000000      0.00000000</v>
  </separator>
  <dos>
   <i name="efermi">      1.77588886 </i>
   <total>
    <array>
     <dimension dim="1">gridpoints</dimension>
     <dimension dim="2">spin</dimension>
     <field>energy</field>
     <field>total</field>
     <field>integrated</field>
     <set>
      <set comment="spin 1">
       <r>   -24.7927     0.0000     0.0000 </r>
       <r>   -24.6826     0.0000     0.0000 </r>
       <r>   -24.5725     0.0000     0.0000 </r>
       <r>   -24.4625    -0.0000    -0.0000 </r>
       <r>   -24.3524    -0.0000    -0.0000 </r>
       <r>   -24.2423    -0.0000    -0.0000 </r>
       <r>   -24.1322    -0.0000    -0.0000 </r>
       <r>   -24.0221    -0.0000    -0.0000 </r>
       <r>   -23.9120    -0.0000    -0.0000 </r>
       <r>   -23.8019    -0.0000    -0.0000 </r>
       <r>   -23.6918    -0.0000    -0.0000 </r>
       <r>   -23.5817    -0.0000    -0.0000 </r>
       <r>   -23.4716    -0.0002    -0.0000 </r>
       <r>   -23.3615    -0.0048    -0.0005 </r>
       <r>   -23.2514    -0.0633    -0.0075 </r>
       <r>   -23.1413    -0.4027    -0.0519 </r>
       <r>   -23.0312    -0.9226    -0.1534 </r>
       <r>   -22.9212     1.3818    -0.0013 </r>
       <r>   -22.8111    10.5014     1.1548 </r>
       <r>   -22.7010    20.3338     3.3934 </r>
       <r>   -22.5909    21.0434     5.7102 </r>
       <r>   -22.4808    23.7527     8.3252 </r>
       <r>   -22.3707    52.3843    14.0923 </r>
       <r>   -22.2606    91.5624    24.1727 </r>
       <r>   -22.1505    92.2053    34.3238 </r>
       <r>   -22.0404    48.7998    39.6963 </r>
       <r>   -21.9303     8.3964    40.6207 </r>
       <r>   -21.8202    -3.4117    40.2451 </r>
       <r>   -21.7101    -1.8585    40.0405 </r>
       <r>   -21.6000    -0.3400    40.0031 </r>
       <r>   -21.4899    -0.0668    39.9957 </r>
       <r>   -21.3799    -0.2584    39.9673 </r>
       <r>   -21.2698    -0.6490    39.8958 </r>
       <r>   -21.1597     0.8939    39.9942 </r>
       <r>   -21.0496     7.6978    40.8417 </r>
       <r>   -20.9395    14.5880    42.4477 </r>
       <r>   -20.8294    11.6706    43.7326 </r>
       <r>   -20.7193     3.4326    44.1105 </r>
       <r>   -20.6092    -0.4240    44.0638 </r>
       <r>   -20.4991    -0.4671    44.0124 </r>
       <r>   -20.3890    -0.1021    44.0012 </r>
       <r>   -20.2789    -0.0100    44.0001 </r>
       <r>   -20.1688    -0.0005    44.0000 </r>
       <r>   -20.0587    -0.0000    44.0000 </r>
       <r>   -19.9486    -0.0000    44.0000 </r>
       <r>   -19.8386    -0.0000    44.0000 </r>
       <r>   -19.7285    -0.0000    44.0000 </r>
       <r>   -19.6184    -0.0000    44.0000 </r>
       <r>   -19.5083     0.0000    44.0000 </r>
       <r>   -19.3982     0.0000    44.0000 </r>
       <r>   -19.2881     0.0000    44.0000 </r>
       <r>   -19.1780     0.0000    44.0000 </r>
       <r>   -19.0679     0.0000    44.0000 </r>
       <r>   -18.9578     0.0000    44.0000 </r>
       <r>   -18.8477     0.0000    44.0000 </r>
       <r>   -18.7376     0.0000    44.0000 </r>
       <r>   -18.6275     0.0000    44.0000 </r>
       <r>   -18.5174     0.0000    44.0000 </r>
       <r>   -18.4073     0.0000    44.0000 </r>
       <r>   -18.2973     0.0000    44.0000 </r>
       <r>   -18.1872    -0.0000    44.0000 </r>
       <r>   -18.0771    -0.0000    44.0000 </r>
       <r>   -17.9670    -0.0000    44.0000 </r>
       <r>   -17.8569    -0.0000    44.0000 </r>
       <r>   -17.7468    -0.0000    44.0000 </r>
       <r>   -17.6367    -0.0000    44.0000 </r>
       <r>   -17.5266    -0.0000    44.0000 </r>
       <r>   -17.4165    -0.0000    44.0000 </r>
       <r>   -17.3064    -0.0000    44.0000 </r>
       <r>   -17.1963    -0.0009    43.9999 </r>
       <r>   -17.0862    -0.0180    43.9979 </r>
       <r>   -16.9761    -0.1720    43.9790 </r>
       <r>   -16.8660    -0.6815    43.9039 </r>
       <r>   -16.7560    -0.0927    43.8937 </r>
       <r>   -16.6459     6.2020    44.5765 </r>
       <r>   -16.5358    15.1193    46.2411 </r>
       <r>   -16.4257    13.3444    47.7102 </r>
       <r>   -16.3156     3.8736    48.1366 </r>
       <r>   -16.2055    -0.6001    48.0706 </r>
       <r>   -16.0954    -0.5291    48.0123 </r>
       <r>   -15.9853    -0.1028    48.0010 </r>
       <r>   -15.8752    -0.0089    48.0000 </r>
       <r>   -15.7651    -0.0004    48.0000 </r>
       <r>   -15.6550    -0.0000    48.0000 </r>
       <r>   -15.5449    -0.0000    48.0000 </r>
       <r>   -15.4348    -0.0000    48.0000 </r>
       <r>   -15.3248    -0.0000    48.0000 </r>
       <r>   -15.2147    -0.0000    48.0000 </r>
       <r>   -15.1046     0.0000    48.0000 </r>
       <r>   -14.9945     0.0000    48.0000 </r>
       <r>   -14.8844     0.0000    48.0000 </r>
       <r>   -14.7743     0.0000    48.0000 </r>
       <r>   -14.6642     0.0000    48.0000 </r>
       <r>   -14.5541     0.0000    48.0000 </r>
       <r>   -14.4440     0.0000    48.0000 </r>
       <r>   -14.3339     0.0000    48.0000 </r>
       <r>   -14.2238     0.0000    48.0000 </r>
       <r>   -14.1137     0.0000    48.0000 </r>
       <r>   -14.0036     0.0000    48.0000 </r>
       <r>   -13.8935     0.0000    48.0000 </r>
       <r>   -13.7835     0.0000    48.0000 </r>
       <r>   -13.6734     0.0000    48.0000 </r>
       <r>   -13.5633     0.0000    48.0000 </r>
       <r>   -13.4532     0.0000    48.0000 </r>
       <r>   -13.3431     0.0000    48.0000 </r>
       <r>   -13.2330     0.0000    48.0000 </r>
       <r>   -13.1229     0.0000    48.0000 </r>
       <r>   -13.0128     0.0000    48.0000 </r>
       <r>   -12.9027     0.0000    48.0000 </r>
       <r>   -12.7926     0.0000    48.0000 </r>
       <r>   -12.6825     0.0000    48.0000 </r>
       <r>   -12.5724     0.0000    48.0000 </r>
       <r>   -12.4623     0.0000    48.0000 </r>
       <r>   -12.3522     0.0000    48.0000 </r>
       <r>   -12.2422     0.0000    48.0000 </r>
       <r>   -12.1321     0.0000    48.0000 </r>
       <r>   -12.0220     0.0000    48.0000 </r>
       <r>   -11.9119     0.0000    48.0000 </r>
       <r>   -11.8018     0.0000    48.0000 </r>
       <r>   -11.6917     0.0000    48.0000 </r>
       <r>   -11.5816     0.0000    48.0000 </r>
       <r>   -11.4715     0.0000    48.0000 </r>
       <r>   -11.3614     0.0000    48.0000 </r>
       <r>   -11.2513     0.0000    48.0000 </r>
       <r>   -11.1412     0.0000    48.0000 </r>
       <r>   -11.0311     0.0000    48.0000 </r>
       <r>   -10.9210     0.0000    48.0000 </r>
       <r>   -10.8109     0.0000    48.0000 </r>
       <r>   -10.7009     0.0000    48.0000 </r>
       <r>   -10.5908     0.0000    48.0000 </r>
       <r>   -10.4807     0.0000    48.0000 </r>
       <r>   -10.3706     0.0000    48.0000 </r>
       <r>   -10.2605     0.0000    48.0000 </r>
       <r>   -10.1504     0.0000    48.0000 </r>
       <r>   -10.0403     0.0000    48.0000 </r>
       <r>    -9.9302     0.0000    48.0000 </r>
       <r>    -9.8201     0.0000    48.0000 </r>
       <r>    -9.7100     0.0000    48.0000 </r>
       <r>    -9.5999     0.0000    48.0000 </r>
       <r>    -9.4898     0.0000    48.0000 </r>
       <r>    -9.3797     0.0000    48.0000 </r>
       <r>    -9.2696     0.0000    48.0000 </r>
       <r>    -9.1596     0.0000    48.0000 </r>
       <r>    -9.0495     0.0000    48.0000 </r>
       <r>    -8.9394     0.0000    48.0000 </r>
       <r>    -8.8293     0.0000    48.0000 </r>
       <r>    -8.7192     0.0000    48.0000 </r>
       <r>    -8.6091     0.0000    48.0000 </r>
       <r>    -8.4990     0.0000    48.0000 </r>
       <r>    -8.3889     0.0000    48.0000 </r>
       <r>    -8.2788     0.0000    48.0000 </r>
       <r>    -8.1687     0.0000    48.0000 </r>
       <r>    -8.0586     0.0000    48.0000 </r>
       <r>    -7.9485     0.0000    48.0000 </r>
       <r>    -7.8384    -0.0000    48.0000 </r>
       <r>    -7.7283    -0.0000    48.0000 </r>
       <r>    -7.6183    -0.0000    48.0000 </r>
       <r>    -7.5082    -0.0000    48.0000 </r>
       <r>    -7.3981    -0.0000    48.0000 </r>
       <r>    -7.2880    -0.0000    48.0000 </r>
       <r>    -7.1779    -0.0000    48.0000 </r>
       <r>    -7.0678    -0.0000    48.0000 </r>
       <r>    -6.9577    -0.0000    48.0000 </r>
       <r>    -6.8476    -0.0005    47.9999 </r>
       <r>    -6.7375    -0.0099    47.9989 </r>
       <r>    -6.6274    -0.1010    47.9877 </r>
       <r>    -6.5173    -0.4608    47.9370 </r>
       <r>    -6.4072    -0.4549    47.8869 </r>
       <r>    -6.2971     3.0379    48.2214 </r>
       <r>    -6.1870    10.6640    49.3954 </r>
       <r>    -6.0770    15.6396    51.1172 </r>
       <r>    -5.9669    16.6576    52.9511 </r>
       <r>    -5.8568    17.1995    54.8446 </r>
       <r>    -5.7467    14.4053    56.4305 </r>
       <r>    -5.6366    10.3116    57.5658 </r>
       <r>    -5.5265    13.1800    59.0168 </r>
       <r>    -5.4164    23.2158    61.5727 </r>
       <r>    -5.3063    25.4909    64.3791 </r>
       <r>    -5.1962    16.4770    66.1931 </r>
       <r>    -5.0861     9.4000    67.2279 </r>
       <r>    -4.9760     4.8525    67.7622 </r>
       <r>    -4.8659     0.1235    67.7758 </r>
       <r>    -4.7558     5.2699    68.3559 </r>
       <r>    -4.6457    23.4994    70.9431 </r>
       <r>    -4.5357    38.5764    75.1900 </r>
       <r>    -4.4256    52.2179    80.9389 </r>
       <r>    -4.3155    82.6472    90.0377 </r>
       <r>    -4.2054   108.7812   102.0138 </r>
       <r>    -4.0953   101.3422   113.1708 </r>
       <r>    -3.9852    66.2943   120.4693 </r>
       <r>    -3.8751    33.0605   124.1091 </r>
       <r>    -3.7650    22.1932   126.5524 </r>
       <r>    -3.6549    33.6547   130.2575 </r>
       <r>    -3.5448    50.7605   135.8459 </r>
       <r>    -3.4347    50.3701   141.3913 </r>
       <r>    -3.3246    46.9957   146.5651 </r>
       <r>    -3.2145    62.3498   153.4294 </r>
       <r>    -3.1044    67.7436   160.8875 </r>
       <r>    -2.9944    49.5549   166.3431 </r>
       <r>    -2.8843    31.7803   169.8419 </r>
       <r>    -2.7742    22.1739   172.2831 </r>
       <r>    -2.6641    17.5888   174.2195 </r>
       <r>    -2.5540    12.5740   175.6038 </r>
       <r>    -2.4439     3.9426   176.0379 </r>
       <r>    -2.3338    -1.4891   175.8739 </r>
       <r>    -2.2237     1.7058   176.0617 </r>
       <r>    -2.1136    15.6024   177.7794 </r>
       <r>    -2.0035    30.9099   181.1824 </r>
       <r>    -1.8934    32.6645   184.7785 </r>
       <r>    -1.7833    21.5840   187.1548 </r>
       <r>    -1.6732     7.9639   188.0315 </r>
       <r>    -1.5631    -0.0319   188.0280 </r>
       <r>    -1.4531     0.7565   188.1113 </r>
       <r>    -1.3430     8.6263   189.0610 </r>
       <r>    -1.2329    14.6467   190.6735 </r>
       <r>    -1.1228    10.4669   191.8258 </r>
       <r>    -1.0127     2.5957   192.1116 </r>
       <r>    -0.9026    -0.5243   192.0539 </r>
       <r>    -0.7925    -0.4023   192.0096 </r>
       <r>    -0.6824    -0.0795   192.0008 </r>
       <r>    -0.5723    -0.0072   192.0000 </r>
       <r>    -0.4622    -0.0003   192.0000 </r>
       <r>    -0.3521    -0.0000   192.0000 </r>
       <r>    -0.2420    -0.0000   192.0000 </r>
       <r>    -0.1319    -0.0000   192.0000 </r>
       <r>    -0.0218    -0.0000   192.0000 </r>
       <r>     0.0882    -0.0003   192.0000 </r>
       <r>     0.1983    -0.0068   191.9992 </r>
       <r>     0.3084    -0.0964   191.9886 </r>
       <r>     0.4185    -0.6930   191.9123 </r>
       <r>     0.5286    -2.2337   191.6664 </r>
       <r>     0.6387    -0.5550   191.6053 </r>
       <r>     0.7488    17.2324   193.5025 </r>
       <r>     0.8589    55.0047   199.5581 </r>
       <r>     0.9690    87.9243   209.2379 </r>
       <r>     1.0791    97.7706   220.0018 </r>
       <r>     1.1892    96.8857   230.6682 </r>
       <r>     1.2993    83.1568   239.8231 </r>
       <r>     1.4094    56.6002   246.0544 </r>
       <r>     1.5195    40.4805   250.5110 </r>
       <r>     1.6295    41.1543   255.0418 </r>
       <r>     1.7396    46.9095   260.2062 </r>
       <r>     1.8497    51.0855   265.8304 </r>
       <r>     1.9598    60.2737   272.4661 </r>
       <r>     2.0699    71.1891   280.3035 </r>
       <r>     2.1800    69.7274   287.9800 </r>
       <r>     2.2901    58.4448   294.4143 </r>
       <r>     2.4002    42.3112   299.0725 </r>
       <r>     2.5103    21.6675   301.4579 </r>
       <r>     2.6204     5.7858   302.0949 </r>
       <r>     2.7305     1.5580   302.2664 </r>
       <r>     2.8406     5.4737   302.8690 </r>
       <r>     2.9507     9.9309   303.9624 </r>
       <r>     3.0608    17.5855   305.8984 </r>
       <r>     3.1708    27.2513   308.8986 </r>
       <r>     3.2809    22.7789   311.4064 </r>
       <r>     3.3910     7.3266   312.2130 </r>
       <r>     3.5011    -0.7440   312.1311 </r>
       <r>     3.6112    -1.0540   312.0150 </r>
       <r>     3.7213    -0.5661   311.9527 </r>
       <r>     3.8314    -0.0453   311.9477 </r>
       <r>     3.9415     3.2435   312.3048 </r>
       <r>     4.0516     7.6677   313.1489 </r>
       <r>     4.1617     6.3899   313.8524 </r>
       <r>     4.2718     1.3634   314.0025 </r>
       <r>     4.3819     0.4458   314.0516 </r>
       <r>     4.4920     4.7448   314.5740 </r>
       <r>     4.6021     7.7952   315.4322 </r>
       <r>     4.7121     6.8776   316.1893 </r>
       <r>     4.8222     7.5223   317.0175 </r>
       <r>     4.9323     6.9602   317.7838 </r>
       <r>     5.0424     2.5510   318.0646 </r>
       <r>     5.1525    -0.1874   318.0440 </r>
       <r>     5.2626    -0.3203   318.0087 </r>
       <r>     5.3727    -0.0720   318.0008 </r>
       <r>     5.4828    -0.0069   318.0000 </r>
       <r>     5.5929    -0.0008   317.9999 </r>
       <r>     5.7030    -0.0095   317.9989 </r>
       <r>     5.8131    -0.0901   317.9890 </r>
       <r>     5.9232    -0.3528   317.9501 </r>
       <r>     6.0333    -0.0206   317.9479 </r>
       <r>     6.1434     3.2594   318.3067 </r>
       <r>     6.2534     7.6998   319.1544 </r>
       <r>     6.3635     6.5548   319.8760 </r>
       <r>     6.4736     1.7671   320.0706 </r>
       <r>     6.5837    -0.3375   320.0334 </r>
       <r>     6.6938    -0.2533   320.0055 </r>
       <r>     6.8039    -0.0464   320.0004 </r>
       <r>     6.9140    -0.0038   320.0000 </r>
       <r>     7.0241    -0.0002   320.0000 </r>
       <r>     7.1342    -0.0000   320.0000 </r>
       <r>     7.2443    -0.0000   320.0000 </r>
       <r>     7.3544    -0.0000   320.0000 </r>
       <r>     7.4645    -0.0000   320.0000 </r>
       <r>     7.5746     0.0000   320.0000 </r>
       <r>     7.6847     0.0000   320.0000 </r>
       <r>     7.7947     0.0000   320.0000 </r>
       <r>     7.9048     0.0000   320.0000 </r>
       <r>     8.0149     0.0000   320.0000 </r>
       <r>     8.1250     0.0000   320.0000 </r>
       <r>     8.2351     0.0000   320.0000 </r>
      </set>
     </set>
    </array>
   </total>
  </dos>
 </calculation>
 <structure name="finalpos" >
  <crystal>
   <varray name="basis" >
    <v>       3.27773000       0.01589200       0.01689000 </v>
    <v>       0.00000000      20.54938400       0.00000000 </v>
    <v>       0.00000000       0.00000000       6.79221100 </v>
   </varray>
   <i name="volume">    457.49162976 </i>
   <varray name="rec_basis" >
    <v>       0.30508919       0.00000000       0.00000000 </v>
    <v>      -0.00023594       0.04866326       0.00000000 </v>
    <v>      -0.00075866       0.00000000       0.14722746 </v>
   </varray>
  </crystal>
  <varray name="positions" >
   <v>       0.00000000       0.16671900       0.49907700 </v>
   <v>       0.00000000       0.83328100       0.50139100 </v>
   <v>       0.00000000       0.66671900       0.00139100 </v>
   <v>       0.00000000       0.33328100       0.00880500 </v>
   <v>       0.50000000       0.16602100       0.00000400 </v>
   <v>       0.49046500       0.83397900       0.00000400 </v>
   <v>       0.50000000       0.66602100       0.50000400 </v>
   <v>       0.50000000       0.33397900       0.50000400 </v>
   <v>       0.00000000       0.00000000       0.01216200 </v>
   <v>       0.00000000       0.50000000       0.51216200 </v>
   <v>       0.50000000       0.00000000       0.47240000 </v>
   <v>       0.50000000       0.50000000       0.97240000 </v>
   <v>       0.00000000       0.00000000       0.31436200 </v>
   <v>       0.00000000       0.50000000       0.81436200 </v>
   <v>       0.00000000       0.16816900       0.21012900 </v>
   <v>       0.00000000       0.83183100       0.20983800 </v>
   <v>       0.00000000       0.66816900       0.70329900 </v>
   <v>       0.00000000       0.33183100       0.69761400 </v>
   <v>       0.00000000       0.16993100       0.79934600 </v>
   <v>       0.00000000       0.83161800       0.79934600 </v>
   <v>       0.00000000       0.66838200       0.29934600 </v>
   <v>       0.00000000       0.33161800       0.29934600 </v>
   <v>       0.50000000       0.06837200       0.99633700 </v>
   <v>       0.50000000       0.93162800       0.99633700 </v>
   <v>       0.50000000       0.56837200       0.49633700 </v>
   <v>       0.49405000       0.42253000       0.49633700 </v>
   <v>       0.50000000       0.09818400       0.50567900 </v>
   <v>       0.50000000       0.90898900       0.50567900 </v>
   <v>       0.50000000       0.59818400       0.00567900 </v>
   <v>       0.49266400       0.40181600       0.00567900 </v>
   <v>       0.49531600       0.23406000       0.50152500 </v>
   <v>       0.50000000       0.76594000       0.50152500 </v>
   <v>       0.50000000       0.73406000       0.00152500 </v>
   <v>       0.50000000       0.26594000       0.00152500 </v>
   <v>       0.00000000       0.00000000       0.69474100 </v>
   <v>       0.00000000       0.50000000       0.19474100 </v>
  </varray>
 </structure>
</modeling>
