<?xml version="1.0" encoding="ISO-8859-1"?>
<modeling>
 <generator>
  <i name="program" type="string">vasp </i>
  <i name="version" type="string">5.3.5  </i>
  <i name="subversion" type="string">31Mar14 (build Aug 29 2014 19:41:47) complex                          parallel </i>
  <i name="platform" type="string">LinuxIFC </i>
  <i name="date" type="string">2019 04 11 </i>
  <i name="time" type="string">16:15:09 </i>
 </generator>
 <incar>
  <i type="string" name="SYSTEM"> Fe6OF11_var_25</i>
  <i type="int" name="ISTART">     0</i>
  <i type="string" name="PREC">normal</i>
  <i type="string" name="ALGO"> VeryFast</i>
  <i type="int" name="ISPIN">     1</i>
  <i type="int" name="ICHARG">     2</i>
  <i type="int" name="NELM">   300</i>
  <i type="int" name="ISYM">     0</i>
  <i type="logical" name="LWAVE"> F  </i>
  <i type="int" name="NELM">   300</i>
 </incar>
 <kpoints>
  <generation param="Gamma">
   <v type="int" name="divisions">       1        1        1 </v>
   <v name="usershift">      0.00000000       0.00000000       0.00000000 </v>
   <v name="genvec1">      1.00000000       0.00000000       0.00000000 </v>
   <v name="genvec2">      0.00000000       1.00000000       0.00000000 </v>
   <v name="genvec3">      0.00000000       0.00000000       1.00000000 </v>
   <v name="shift">      0.00000000       0.00000000       0.00000000 </v>
  </generation>
  <varray name="kpointlist" >
   <v>       0.00000000       0.00000000       0.00000000 </v>
  </varray>
  <varray name="weights" >
   <v>       1.00000000 </v>
  </varray>
 </kpoints>
 <parameters>
  <separator name="general" >
   <i type="string" name="SYSTEM">Fe6OF11_var_25</i>
   <i type="logical" name="LCOMPAT"> F  </i>
  </separator>
  <separator name="electronic" >
   <i type="string" name="PREC">normal</i>
   <i name="ENMAX">    400.00000000</i>
   <i name="ENAUG">    613.61400000</i>
   <i name="EDIFF">      0.00010000</i>
   <i type="int" name="IALGO">    48</i>
   <i type="int" name="IWAVPR">    10</i>
   <i type="int" name="NBANDS">   160</i>
   <i name="NELECT">    262.00000000</i>
   <i type="int" name="TURBO">     0</i>
   <i type="int" name="IRESTART">     0</i>
   <i type="int" name="NREBOOT">     0</i>
   <i type="int" name="NMIN">     0</i>
   <i name="EREF">      0.00000000</i>
   <separator name="electronic smearing" >
    <i type="int" name="ISMEAR">     1</i>
    <i name="SIGMA">      0.20000000</i>
    <i name="KSPACING">      0.50000000</i>
    <i type="logical" name="KGAMMA"> T  </i>
   </separator>
   <separator name="electronic projectors" >
    <i type="logical" name="LREAL"> F  </i>
    <v name="ROPT">      0.00000000      0.00000000      0.00000000</v>
    <i type="int" name="LMAXPAW">  -100</i>
    <i type="int" name="LMAXMIX">     2</i>
    <i type="logical" name="NLSPLINE"> F  </i>
   </separator>
   <separator name="electronic startup" >
    <i type="int" name="ISTART">     0</i>
    <i type="int" name="ICHARG">     2</i>
    <i type="int" name="INIWAV">     1</i>
   </separator>
   <separator name="electronic spin" >
    <i type="int" name="ISPIN">     1</i>
    <i type="logical" name="LNONCOLLINEAR"> F  </i>
    <v name="MAGMOM">      1.00000000      1.00000000      1.00000000      1.00000000      1.00000000      1.00000000      1.00000000      1.00000000      1.00000000      1.00000000      1.00000000      1.00000000      1.00000000      1.00000000      1.00000000      1.00000000      1.00000000      1.00000000      1.00000000      1.00000000
      1.00000000      1.00000000      1.00000000      1.00000000      1.00000000      1.00000000      1.00000000      1.00000000      1.00000000      1.00000000      1.00000000      1.00000000      1.00000000      1.00000000      1.00000000      1.00000000</v>
    <i name="NUPDOWN">     -1.00000000</i>
    <i type="logical" name="LSORBIT"> F  </i>
    <v name="SAXIS">      0.00000000      0.00000000      1.00000000</v>
    <i type="logical" name="LSPIRAL"> F  </i>
    <v name="QSPIRAL">      0.00000000      0.00000000      0.00000000</v>
    <i type="logical" name="LZEROZ"> F  </i>
   </separator>
   <separator name="electronic exchange-correlation" >
    <i type="logical" name="LASPH"> F  </i>
    <i type="logical" name="LMETAGGA"> F  </i>
   </separator>
   <separator name="electronic convergence" >
    <i type="int" name="NELM">   300</i>
    <i type="int" name="NELMDL">   -12</i>
    <i type="int" name="NELMIN">     2</i>
    <i name="ENINI">    400.00000000</i>
    <separator name="electronic convergence detail" >
     <i type="logical" name="LDIAG"> T  </i>
     <i type="logical" name="LSUBROT"> F  </i>
     <i name="WEIMIN">      0.00000000</i>
     <i name="EBREAK">      0.00000016</i>
     <i name="DEPER">      0.30000000</i>
     <i type="int" name="NRMM">     4</i>
     <i name="TIME">      0.40000000</i>
    </separator>
   </separator>
   <separator name="electronic mixer" >
    <i name="AMIX">      0.40000000</i>
    <i name="BMIX">      1.00000000</i>
    <i name="AMIN">      0.10000000</i>
    <i name="AMIX_MAG">      1.60000000</i>
    <i name="BMIX_MAG">      1.00000000</i>
    <separator name="electronic mixer details" >
     <i type="int" name="IMIX">     4</i>
     <i type="int" name="MAXMIX">   -45</i>
     <i name="WC">    100.00000000</i>
     <i type="int" name="INIMIX">     1</i>
     <i type="int" name="MIXPRE">     1</i>
     <i type="int" name="MREMOVE">     5</i>
    </separator>
   </separator>
   <separator name="electronic dipolcorrection" >
    <i type="logical" name="LDIPOL"> F  </i>
    <i type="logical" name="LMONO"> F  </i>
    <i type="int" name="IDIPOL">     0</i>
    <i name="EPSILON">      1.00000000</i>
    <v name="DIPOL">   -100.00000000   -100.00000000   -100.00000000</v>
    <i name="EFIELD">      0.00000000</i>
   </separator>
  </separator>
  <separator name="grids" >
   <i type="int" name="NGX">    16</i>
   <i type="int" name="NGY">   108</i>
   <i type="int" name="NGZ">    36</i>
   <i type="int" name="NGXF">    32</i>
   <i type="int" name="NGYF">   216</i>
   <i type="int" name="NGZF">    72</i>
   <i type="logical" name="ADDGRID"> F  </i>
  </separator>
  <separator name="ionic" >
   <i type="int" name="NSW">     0</i>
   <i type="int" name="IBRION">    -1</i>
   <i type="int" name="ISIF">     2</i>
   <i name="PSTRESS">      0.00000000</i>
   <i name="EDIFFG">      0.00100000</i>
   <i type="int" name="NFREE">     0</i>
   <i name="POTIM">      0.50000000</i>
   <i name="SMASS">     -3.00000000</i>
   <i name="SCALEE">      1.00000000</i>
  </separator>
  <separator name="ionic md" >
   <i name="TEBEG">      0.00010000</i>
   <i name="TEEND">      0.00010000</i>
   <i type="int" name="NBLOCK">     1</i>
   <i type="int" name="KBLOCK">     1</i>
   <i type="int" name="NPACO">   256</i>
   <i name="APACO">     16.00000000</i>
  </separator>
  <separator name="symmetry" >
   <i type="int" name="ISYM">     0</i>
   <i name="SYMPREC">      0.00001000</i>
  </separator>
  <separator name="dos" >
   <i type="logical" name="LORBIT"> F  </i>
   <v name="RWIGS">     -1.00000000     -1.00000000     -1.00000000</v>
   <i type="int" name="NEDOS">   301</i>
   <i name="EMIN">     10.00000000</i>
   <i name="EMAX">    -10.00000000</i>
   <i name="EFERMI">      0.00000000</i>
  </separator>
  <separator name="writing" >
   <i type="int" name="NWRITE">     2</i>
   <i type="logical" name="LWAVE"> F  </i>
   <i type="logical" name="LCHARG"> T  </i>
   <i type="logical" name="LPARD"> F  </i>
   <i type="logical" name="LVTOT"> F  </i>
   <i type="logical" name="LVHAR"> F  </i>
   <i type="logical" name="LELF"> F  </i>
   <i type="logical" name="LOPTICS"> F  </i>
   <v name="STM">      0.00000000      0.00000000      0.00000000      0.00000000      0.00000000      0.00000000      0.00000000</v>
  </separator>
  <separator name="performance" >
   <i type="int" name="NPAR">     4</i>
   <i type="int" name="NSIM">     4</i>
   <i type="int" name="NBLK">    -1</i>
   <i type="logical" name="LPLANE"> T  </i>
   <i type="logical" name="LSCALAPACK"> T  </i>
   <i type="logical" name="LSCAAWARE"> F  </i>
   <i type="logical" name="LSCALU"> F  </i>
   <i type="logical" name="LASYNC"> F  </i>
   <i type="logical" name="LORBITALREAL"> F  </i>
  </separator>
  <separator name="miscellaneous" >
   <i type="int" name="IDIOT">     3</i>
   <i type="logical" name="LMUSIC"> F  </i>
   <v name="POMASS">     55.84700000     16.00000000     18.99800000</v>
   <v name="DARWINR">      0.00000000      0.00000000      0.00000000</v>
   <v name="DARWINV">      1.00000000      1.00000000      1.00000000</v>
   <i type="logical" name="LCORR"> T  </i>
  </separator>
  <i type="logical" name="GGA_COMPAT"> T  </i>
  <i type="logical" name="LBERRY"> F  </i>
  <i type="int" name="ICORELEVEL">     0</i>
  <i type="logical" name="LDAU"> F  </i>
  <i type="int" name="I_CONSTRAINED_M">     0</i>
  <separator name="electronic exchange-correlation" >
   <i type="string" name="GGA">--</i>
   <i type="int" name="VOSKOWN">     0</i>
   <i type="logical" name="LHFCALC"> F  </i>
   <i type="string" name="PRECFOCK"></i>
   <i type="logical" name="LSYMGRAD"> F  </i>
   <i type="logical" name="LHFONE"> F  </i>
   <i type="logical" name="LRHFCALC"> F  </i>
   <i type="logical" name="LTHOMAS"> F  </i>
   <i type="logical" name="LMODELHF"> F  </i>
   <i name="ENCUT4O">     -1.00000000</i>
   <i type="int" name="EXXOEP">     0</i>
   <i type="int" name="FOURORBIT">     0</i>
   <i name="AEXX">      0.00000000</i>
   <i name="HFALPHA">      0.00000000</i>
   <i name="MCALPHA">      0.00000000</i>
   <i name="ALDAX">      1.00000000</i>
   <i name="AGGAX">      1.00000000</i>
   <i name="ALDAC">      1.00000000</i>
   <i name="AGGAC">      1.00000000</i>
   <i type="int" name="NKREDX">     1</i>
   <i type="int" name="NKREDY">     1</i>
   <i type="int" name="NKREDZ">     1</i>
   <i type="logical" name="SHIFTRED"> F  </i>
   <i type="logical" name="ODDONLY"> F  </i>
   <i type="logical" name="EVENONLY"> F  </i>
   <i type="int" name="LMAXFOCK">     0</i>
   <i type="int" name="NMAXFOCKAE">     0</i>
   <i type="logical" name="LFOCKAEDFT"> F  </i>
   <i name="HFSCREEN">      0.00000000</i>
   <i name="HFSCREENC">      0.00000000</i>
   <i type="int" name="NBANDSGWLOW">     0</i>
  </separator>
  <separator name="vdW DFT" >
   <i type="logical" name="LUSE_VDW"> F  </i>
   <i name="Zab_VDW">     -0.84910000</i>
   <i name="PARAM1">      0.12340000</i>
   <i name="PARAM2">      1.00000000</i>
   <i name="PARAM3">      0.00000000</i>
  </separator>
  <separator name="model GW" >
   <i type="int" name="MODEL_GW">     0</i>
   <i name="MODEL_EPS0">      7.66640631</i>
   <i name="MODEL_ALPHA">      1.00000000</i>
  </separator>
  <separator name="linear response parameters" >
   <i type="logical" name="LEPSILON"> F  </i>
   <i type="logical" name="LRPA"> F  </i>
   <i type="logical" name="LNABLA"> F  </i>
   <i type="logical" name="LVEL"> F  </i>
   <i type="int" name="KINTER">     0</i>
   <i name="CSHIFT">      0.10000000</i>
   <i name="OMEGAMAX">     -1.00000000</i>
   <i name="DEG_THRESHOLD">      0.00200000</i>
  </separator>
  <separator name="orbital magnetization" >
   <i type="logical" name="NUCIND"> F  </i>
   <v name="MAGPOS">      0.00000000      0.00000000      0.00000000</v>
   <i type="logical" name="LNICSALL"> T  </i>
   <i type="logical" name="ORBITALMAG"> F  </i>
   <i type="logical" name="LMAGBLOCH"> F  </i>
   <i type="logical" name="LCHIMAG"> F  </i>
   <i type="logical" name="LGAUGE"> T  </i>
   <i type="int" name="MAGATOM">     0</i>
   <v name="MAGDIPOL">      0.00000000      0.00000000      0.00000000</v>
   <v name="AVECCONST">      0.00000000      0.00000000      0.00000000</v>
  </separator>
  <separator name="response functions" >
   <i type="logical" name="LADDER"> F  </i>
   <i type="logical" name="LFXC"> F  </i>
   <i type="logical" name="LHARTREE"> T  </i>
   <i type="int" name="IBSE">     0</i>
   <i type="logical" name="LTCTE"> F  </i>
   <i type="logical" name="LTETE"> F  </i>
   <i type="logical" name="LTRIPLET"> F  </i>
   <i type="logical" name="LFXCEPS"> F  </i>
   <i type="logical" name="LFXHEG"> F  </i>
   <i type="logical" name="L2ORDER"> F  </i>
   <i type="logical" name="LUSEW"> F  </i>
   <i name="ENCUTGW">     -2.00000000</i>
   <i name="ENCUTGWSOFT">     -2.00000000</i>
   <i name="ENCUTLF">     -1.00000000</i>
   <i type="int" name="LMAXMP2">    -1</i>
   <i name="SCISSOR">      0.00000000</i>
   <i type="int" name="NOMEGA">     0</i>
   <i type="int" name="NOMEGAR">     0</i>
   <i type="int" name="NBANDSGW">    -1</i>
   <i type="int" name="NBANDSO">    -1</i>
   <i type="int" name="NBANDSV">    -1</i>
   <i type="int" name="NELM">   300</i>
   <i type="int" name="DIM">     3</i>
   <i type="int" name="ANTIRES">     0</i>
   <i name="OMEGAMAX">    -30.00000000</i>
   <i name="OMEGAMIN">    -30.00000000</i>
   <i name="OMEGATL">   -200.00000000</i>
   <i type="int" name="OMEGAGRID">     0</i>
   <i name="CSHIFT">     -0.10000000</i>
   <i type="logical" name="SELFENERGY"> F  </i>
   <i type="logical" name="LSPECTRAL"> F  </i>
   <i type="logical" name="ODDONLYGW"> F  </i>
   <i type="logical" name="EVENONLYGW"> F  </i>
   <i type="int" name="NKREDLFX">     1</i>
   <i type="int" name="NKREDLFY">     1</i>
   <i type="int" name="NKREDLFZ">     1</i>
   <i type="int" name="MAXMEM">  1800</i>
   <i type="int" name="TELESCOPE">     0</i>
   <i type="int" name="TAUPAR">     1</i>
  </separator>
  <separator name="External order field" >
   <i name="OFIELD_KAPPA">      0.00000000</i>
   <v name="OFIELD_K">      0.00000000      0.00000000      0.00000000</v>
   <i name="OFIELD_Q6_NEAR">      0.00000000</i>
   <i name="OFIELD_Q6_FAR">      0.00000000</i>
   <i name="OFIELD_A">      0.00000000</i>
  </separator>
 </parameters>
 <atominfo>
  <atoms>      36 </atoms>
  <types>       3 </types>
  <array name="atoms" >
   <dimension dim="1">ion</dimension>
   <field type="string">element</field>
   <field type="int">atomtype</field>
   <set>
    <rc><c>Fe</c><c>   1</c></rc>
    <rc><c>Fe</c><c>   1</c></rc>
    <rc><c>Fe</c><c>   1</c></rc>
    <rc><c>Fe</c><c>   1</c></rc>
    <rc><c>Fe</c><c>   1</c></rc>
    <rc><c>Fe</c><c>   1</c></rc>
    <rc><c>Fe</c><c>   1</c></rc>
    <rc><c>Fe</c><c>   1</c></rc>
    <rc><c>Fe</c><c>   1</c></rc>
    <rc><c>Fe</c><c>   1</c></rc>
    <rc><c>Fe</c><c>   1</c></rc>
    <rc><c>Fe</c><c>   1</c></rc>
    <rc><c>O </c><c>   2</c></rc>
    <rc><c>O </c><c>   2</c></rc>
    <rc><c>F </c><c>   3</c></rc>
    <rc><c>F </c><c>   3</c></rc>
    <rc><c>F </c><c>   3</c></rc>
    <rc><c>F </c><c>   3</c></rc>
    <rc><c>F </c><c>   3</c></rc>
    <rc><c>F </c><c>   3</c></rc>
    <rc><c>F </c><c>   3</c></rc>
    <rc><c>F </c><c>   3</c></rc>
    <rc><c>F </c><c>   3</c></rc>
    <rc><c>F </c><c>   3</c></rc>
    <rc><c>F </c><c>   3</c></rc>
    <rc><c>F </c><c>   3</c></rc>
    <rc><c>F </c><c>   3</c></rc>
    <rc><c>F </c><c>   3</c></rc>
    <rc><c>F </c><c>   3</c></rc>
    <rc><c>F </c><c>   3</c></rc>
    <rc><c>F </c><c>   3</c></rc>
    <rc><c>F </c><c>   3</c></rc>
    <rc><c>F </c><c>   3</c></rc>
    <rc><c>F </c><c>   3</c></rc>
    <rc><c>F </c><c>   3</c></rc>
    <rc><c>F </c><c>   3</c></rc>
   </set>
  </array>
  <array name="atomtypes" >
   <dimension dim="1">type</dimension>
   <field type="int">atomspertype</field>
   <field type="string">element</field>
   <field>mass</field>
   <field>valence</field>
   <field type="string">pseudopotential</field>
   <set>
    <rc><c>  12</c><c>Fe</c><c>     55.84700000</c><c>      8.00000000</c><c>  PAW_PBE Fe 06Sep2000                  </c></rc>
    <rc><c>   2</c><c>O </c><c>     16.00000000</c><c>      6.00000000</c><c>  PAW_PBE O 08Apr2002                   </c></rc>
    <rc><c>  22</c><c>F </c><c>     18.99800000</c><c>      7.00000000</c><c>  PAW_PBE F 08Apr2002                   </c></rc>
   </set>
  </array>
 </atominfo>
 <structure name="initialpos" >
  <crystal>
   <varray name="basis" >
    <v>       3.28173000       0.00000000       0.00000000 </v>
    <v>       0.00000000      20.54938400       0.00000000 </v>
    <v>       0.00000000       0.00000000       6.82089600 </v>
   </varray>
   <i name="volume">    459.98437832 </i>
   <varray name="rec_basis" >
    <v>       0.30471733       0.00000000       0.00000000 </v>
    <v>       0.00000000       0.04866326       0.00000000 </v>
    <v>       0.00000000       0.00000000       0.14660830 </v>
   </varray>
  </crystal>
  <varray name="positions" >
   <v>       0.00000000       0.16671900       0.50139100 </v>
   <v>       0.00000000       0.83328100       0.50283800 </v>
   <v>       0.00000000       0.66671900       0.00139100 </v>
   <v>       0.00000000       0.33328100       0.00139100 </v>
   <v>       0.50000000       0.16602100       0.99594000 </v>
   <v>       0.49437200       0.82660600       0.00000400 </v>
   <v>       0.50000000       0.66602100       0.50000400 </v>
   <v>       0.50000000       0.33397900       0.50000400 </v>
   <v>       0.00000000       0.00000000       0.01216200 </v>
   <v>       0.00000000       0.50000000       0.51216200 </v>
   <v>       0.50000000       0.00000000       0.47240000 </v>
   <v>       0.50000000       0.50000000       0.97240000 </v>
   <v>       0.00231500       0.00000000       0.31436200 </v>
   <v>       0.00000000       0.50740100       0.81436200 </v>
   <v>       0.00000000       0.16816900       0.20329900 </v>
   <v>       0.00000000       0.83183100       0.20329900 </v>
   <v>       0.00000000       0.66816900       0.70645700 </v>
   <v>       0.00000000       0.33183100       0.70329900 </v>
   <v>       0.00000000       0.16838200       0.79934600 </v>
   <v>       0.00000000       0.83161800       0.79934600 </v>
   <v>       0.00000000       0.66838200       0.29934600 </v>
   <v>       0.00000000       0.33161800       0.29934600 </v>
   <v>       0.50000000       0.06837200       0.99633700 </v>
   <v>       0.50000000       0.93162800       0.99633700 </v>
   <v>       0.50808600       0.56837200       0.49633700 </v>
   <v>       0.50000000       0.43162800       0.49633700 </v>
   <v>       0.50000000       0.09818400       0.50567900 </v>
   <v>       0.50000000       0.90181600       0.50567900 </v>
   <v>       0.50000000       0.59818400       0.00567900 </v>
   <v>       0.50000000       0.40181600       0.00567900 </v>
   <v>       0.50000000       0.23406000       0.50152500 </v>
   <v>       0.50000000       0.76594000       0.50585300 </v>
   <v>       0.50000000       0.73406000       0.00152500 </v>
   <v>       0.50000000       0.26594000       0.00152500 </v>
   <v>       0.00000000       0.00000000       0.69474100 </v>
   <v>       0.00000000       0.50000000       0.19474100 </v>
  </varray>
 </structure>
 <calculation>
  <scstep>
   <time name="diag">    0.35    0.60</time>
   <time name="diis">    0.43    0.61</time>
   <time name="orth">    0.15    0.15</time>
   <time name="total">    1.06    1.55</time>
   <energy>
    <i name="alphaZ">    931.27601724 </i>
    <i name="ewald"> -15919.21357330 </i>
    <i name="hartreedc">  -6735.99370689 </i>
    <i name="XCdc">    901.45467596 </i>
    <i name="pawpsdc">  19213.82102697 </i>
    <i name="pawaedc"> -19422.08171028 </i>
    <i name="eentropy">     -0.02308191 </i>
    <i name="bandstr">   1809.34923091 </i>
    <i name="atom">  22504.09828397 </i>
    <i name="e_fr_energy">   3282.68716267 </i>
    <i name="e_wo_entrp">   3282.71024458 </i>
    <i name="e_0_energy">   3282.69485664 </i>
   </energy>
  </scstep>
  <scstep>
   <time name="diag">    0.16    0.21</time>
   <time name="diis">    0.46    0.59</time>
   <time name="orth">    0.03    0.06</time>
   <time name="total">    0.66    0.86</time>
   <energy>
    <i name="e_fr_energy">   1035.73384875 </i>
    <i name="e_wo_entrp">   1035.70809963 </i>
    <i name="e_0_energy">   1035.72526571 </i>
   </energy>
  </scstep>
  <scstep>
   <time name="diag">    0.11    0.22</time>
   <time name="diis">    0.40    0.51</time>
   <time name="orth">    0.03    0.06</time>
   <time name="total">    0.54    0.80</time>
   <energy>
    <i name="e_fr_energy">    353.20996822 </i>
    <i name="e_wo_entrp">    352.94385114 </i>
    <i name="e_0_energy">    353.12126253 </i>
   </energy>
  </scstep>
  <scstep>
   <time name="diag">    0.11    0.21</time>
   <time name="diis">    0.36    0.53</time>
   <time name="orth">    0.06    0.10</time>
   <time name="total">    0.53    0.84</time>
   <energy>
    <i name="e_fr_energy">     65.66188752 </i>
    <i name="e_wo_entrp">     65.61089368 </i>
    <i name="e_0_energy">     65.64488957 </i>
   </energy>
  </scstep>
  <scstep>
   <time name="diag">    0.41    0.56</time>
   <time name="diis">    0.35    0.57</time>
   <time name="orth">    0.03    0.06</time>
   <time name="total">    0.79    1.20</time>
   <energy>
    <i name="e_fr_energy">    -89.64949672 </i>
    <i name="e_wo_entrp">    -89.73865703 </i>
    <i name="e_0_energy">    -89.67921683 </i>
   </energy>
  </scstep>
  <scstep>
   <time name="diag">    0.35    0.58</time>
   <time name="diis">    0.40    0.71</time>
   <time name="orth">    0.16    0.23</time>
   <time name="total">    0.91    1.52</time>
   <energy>
    <i name="e_fr_energy">   -160.29183487 </i>
    <i name="e_wo_entrp">   -160.39527628 </i>
    <i name="e_0_energy">   -160.32631534 </i>
   </energy>
  </scstep>
  <scstep>
   <time name="diag">    0.27    0.30</time>
   <time name="diis">    0.56    0.63</time>
   <time name="orth">    0.16    0.20</time>
   <time name="total">    1.00    1.14</time>
   <energy>
    <i name="e_fr_energy">   -194.89920972 </i>
    <i name="e_wo_entrp">   -195.07202149 </i>
    <i name="e_0_energy">   -194.95681365 </i>
   </energy>
  </scstep>
  <scstep>
   <time name="diag">    0.42    0.66</time>
   <time name="diis">    0.39    0.55</time>
   <time name="orth">    0.12    0.14</time>
   <time name="total">    0.93    1.35</time>
   <energy>
    <i name="e_fr_energy">   -208.32658651 </i>
    <i name="e_wo_entrp">   -208.55776631 </i>
    <i name="e_0_energy">   -208.40364645 </i>
   </energy>
  </scstep>
  <scstep>
   <time name="diag">    0.26    0.45</time>
   <time name="diis">    1.19    1.68</time>
   <time name="orth">    0.20    0.25</time>
   <time name="total">    1.65    2.38</time>
   <energy>
    <i name="e_fr_energy">   -221.82466469 </i>
    <i name="e_wo_entrp">   -222.06510289 </i>
    <i name="e_0_energy">   -221.90481076 </i>
   </energy>
  </scstep>
  <scstep>
   <time name="diag">    0.30    0.39</time>
   <time name="diis">    1.31    1.81</time>
   <time name="orth">    0.05    0.10</time>
   <time name="total">    1.66    2.30</time>
   <energy>
    <i name="e_fr_energy">   -222.13530724 </i>
    <i name="e_wo_entrp">   -222.28949317 </i>
    <i name="e_0_energy">   -222.18670255 </i>
   </energy>
  </scstep>
  <scstep>
   <time name="diag">    0.31    0.45</time>
   <time name="diis">    1.20    1.67</time>
   <time name="orth">    0.04    0.04</time>
   <time name="total">    1.56    2.16</time>
   <energy>
    <i name="e_fr_energy">   -222.45328463 </i>
    <i name="e_wo_entrp">   -222.53847106 </i>
    <i name="e_0_energy">   -222.48168011 </i>
   </energy>
  </scstep>
  <scstep>
   <time name="diag">    0.20    0.20</time>
   <time name="diis">    1.03    1.40</time>
   <time name="orth">    0.04    0.04</time>
   <time name="total">    1.39    1.80</time>
   <energy>
    <i name="e_fr_energy">   -222.61306044 </i>
    <i name="e_wo_entrp">   -222.69503800 </i>
    <i name="e_0_energy">   -222.64038629 </i>
   </energy>
  </scstep>
  <scstep>
   <time name="diag">    0.14    0.20</time>
   <time name="diis">    0.89    1.29</time>
   <time name="orth">    0.03    0.05</time>
   <time name="total">    1.46    2.12</time>
   <energy>
    <i name="e_fr_energy">   -209.52813193 </i>
    <i name="e_wo_entrp">   -209.53758298 </i>
    <i name="e_0_energy">   -209.53128228 </i>
   </energy>
  </scstep>
  <scstep>
   <time name="diag">    0.29    0.46</time>
   <time name="diis">    0.90    1.24</time>
   <time name="orth">    0.04    0.06</time>
   <time name="total">    1.68    2.35</time>
   <energy>
    <i name="e_fr_energy">   -287.38431290 </i>
    <i name="e_wo_entrp">   -287.39374261 </i>
    <i name="e_0_energy">   -287.38745613 </i>
   </energy>
  </scstep>
  <scstep>
   <time name="diag">    0.30    0.43</time>
   <time name="diis">    0.79    1.17</time>
   <time name="orth">    0.05    0.05</time>
   <time name="total">    1.52    2.13</time>
   <energy>
    <i name="e_fr_energy">   -243.92798235 </i>
    <i name="e_wo_entrp">   -243.90860186 </i>
    <i name="e_0_energy">   -243.92152219 </i>
   </energy>
  </scstep>
  <scstep>
   <time name="diag">    0.21    0.33</time>
   <time name="diis">    0.77    1.14</time>
   <time name="orth">    0.06    0.09</time>
   <time name="total">    1.24    1.82</time>
   <energy>
    <i name="e_fr_energy">   -231.68548467 </i>
    <i name="e_wo_entrp">   -231.72982018 </i>
    <i name="e_0_energy">   -231.70026318 </i>
   </energy>
  </scstep>
  <scstep>
   <time name="diag">    0.36    0.47</time>
   <time name="diis">    0.81    1.18</time>
   <time name="orth">    0.07    0.11</time>
   <time name="total">    1.42    2.13</time>
   <energy>
    <i name="e_fr_energy">   -219.29919006 </i>
    <i name="e_wo_entrp">   -219.51240325 </i>
    <i name="e_0_energy">   -219.37026112 </i>
   </energy>
  </scstep>
  <scstep>
   <time name="diag">    0.43    0.77</time>
   <time name="diis">    0.77    1.22</time>
   <time name="orth">    0.33    0.57</time>
   <time name="total">    2.20    3.37</time>
   <energy>
    <i name="e_fr_energy">   -224.38129796 </i>
    <i name="e_wo_entrp">   -224.36129998 </i>
    <i name="e_0_energy">   -224.37463197 </i>
   </energy>
  </scstep>
  <scstep>
   <time name="diag">    0.28    0.35</time>
   <time name="diis">    0.70    1.12</time>
   <time name="orth">    0.06    0.09</time>
   <time name="total">    1.27    1.87</time>
   <energy>
    <i name="e_fr_energy">   -235.26734103 </i>
    <i name="e_wo_entrp">   -235.20721266 </i>
    <i name="e_0_energy">   -235.24729824 </i>
   </energy>
  </scstep>
  <scstep>
   <time name="diag">    0.13    0.23</time>
   <time name="diis">    0.81    1.10</time>
   <time name="orth">    0.10    0.15</time>
   <time name="total">    1.21    1.76</time>
   <energy>
    <i name="e_fr_energy">   -225.87706274 </i>
    <i name="e_wo_entrp">   -225.75133573 </i>
    <i name="e_0_energy">   -225.83515373 </i>
   </energy>
  </scstep>
  <scstep>
   <time name="diag">    0.44    0.60</time>
   <time name="diis">    0.81    1.06</time>
   <time name="orth">    0.10    0.20</time>
   <time name="total">    1.53    2.08</time>
   <energy>
    <i name="e_fr_energy">   -207.17609019 </i>
    <i name="e_wo_entrp">   -207.12390753 </i>
    <i name="e_0_energy">   -207.15869597 </i>
   </energy>
  </scstep>
  <scstep>
   <time name="diag">    0.20    0.24</time>
   <time name="diis">    0.77    1.18</time>
   <time name="orth">    0.09    0.17</time>
   <time name="total">    1.52    2.34</time>
   <energy>
    <i name="e_fr_energy">   -216.44286263 </i>
    <i name="e_wo_entrp">   -216.52940865 </i>
    <i name="e_0_energy">   -216.47171131 </i>
   </energy>
  </scstep>
  <scstep>
   <time name="diag">    0.18    0.24</time>
   <time name="diis">    0.73    1.23</time>
   <time name="orth">    0.07    0.12</time>
   <time name="total">    1.17    1.89</time>
   <energy>
    <i name="e_fr_energy">   -216.84949131 </i>
    <i name="e_wo_entrp">   -216.89777718 </i>
    <i name="e_0_energy">   -216.86558660 </i>
   </energy>
  </scstep>
  <scstep>
   <time name="diag">    0.14    0.20</time>
   <time name="diis">    0.85    1.24</time>
   <time name="orth">    0.04    0.04</time>
   <time name="total">    1.24    1.70</time>
   <energy>
    <i name="e_fr_energy">   -205.70366337 </i>
    <i name="e_wo_entrp">   -205.79823228 </i>
    <i name="e_0_energy">   -205.73518634 </i>
   </energy>
  </scstep>
  <scstep>
   <time name="diag">    0.20    0.28</time>
   <time name="diis">    0.80    1.14</time>
   <time name="orth">    0.06    0.09</time>
   <time name="total">    1.17    1.71</time>
   <energy>
    <i name="e_fr_energy">   -198.49466074 </i>
    <i name="e_wo_entrp">   -198.38176327 </i>
    <i name="e_0_energy">   -198.45702825 </i>
   </energy>
  </scstep>
  <scstep>
   <time name="diag">    0.20    0.28</time>
   <time name="diis">    0.71    1.05</time>
   <time name="orth">    0.11    0.12</time>
   <time name="total">    1.22    1.75</time>
   <energy>
    <i name="e_fr_energy">   -196.98599231 </i>
    <i name="e_wo_entrp">   -196.84256099 </i>
    <i name="e_0_energy">   -196.93818187 </i>
   </energy>
  </scstep>
  <scstep>
   <time name="diag">    0.30    0.39</time>
   <time name="diis">    0.86    1.18</time>
   <time name="orth">    0.03    0.04</time>
   <time name="total">    1.38    1.90</time>
   <energy>
    <i name="e_fr_energy">   -192.42909320 </i>
    <i name="e_wo_entrp">   -192.47017231 </i>
    <i name="e_0_energy">   -192.44278624 </i>
   </energy>
  </scstep>
  <scstep>
   <time name="diag">    0.58    0.82</time>
   <time name="diis">    0.79    1.12</time>
   <time name="orth">    0.06    0.12</time>
   <time name="total">    1.81    2.74</time>
   <energy>
    <i name="e_fr_energy">   -190.29557052 </i>
    <i name="e_wo_entrp">   -190.34674729 </i>
    <i name="e_0_energy">   -190.31262944 </i>
   </energy>
  </scstep>
  <scstep>
   <time name="diag">    0.19    0.32</time>
   <time name="diis">    0.99    1.16</time>
   <time name="orth">    0.26    0.35</time>
   <time name="total">    1.98    2.57</time>
   <energy>
    <i name="e_fr_energy">   -189.65054823 </i>
    <i name="e_wo_entrp">   -189.66972482 </i>
    <i name="e_0_energy">   -189.65694043 </i>
   </energy>
  </scstep>
  <scstep>
   <time name="diag">    0.24    0.31</time>
   <time name="diis">    0.88    1.25</time>
   <time name="orth">    0.14    0.21</time>
   <time name="total">    1.59    2.28</time>
   <energy>
    <i name="e_fr_energy">   -188.89971192 </i>
    <i name="e_wo_entrp">   -188.98882703 </i>
    <i name="e_0_energy">   -188.92941696 </i>
   </energy>
  </scstep>
  <scstep>
   <time name="diag">    0.34    0.56</time>
   <time name="diis">    0.75    1.10</time>
   <time name="orth">    0.05    0.07</time>
   <time name="total">    1.36    2.09</time>
   <energy>
    <i name="e_fr_energy">   -189.00944265 </i>
    <i name="e_wo_entrp">   -189.04979955 </i>
    <i name="e_0_energy">   -189.02289495 </i>
   </energy>
  </scstep>
  <scstep>
   <time name="diag">    0.55    0.70</time>
   <time name="diis">    0.71    1.12</time>
   <time name="orth">    0.02    0.04</time>
   <time name="total">    1.72    2.59</time>
   <energy>
    <i name="e_fr_energy">   -188.90234805 </i>
    <i name="e_wo_entrp">   -188.88107809 </i>
    <i name="e_0_energy">   -188.89525806 </i>
   </energy>
  </scstep>
  <scstep>
   <time name="diag">    0.25    0.41</time>
   <time name="diis">    0.79    1.15</time>
   <time name="orth">    0.04    0.04</time>
   <time name="total">    1.47    2.14</time>
   <energy>
    <i name="e_fr_energy">   -188.70597045 </i>
    <i name="e_wo_entrp">   -188.74277801 </i>
    <i name="e_0_energy">   -188.71823964 </i>
   </energy>
  </scstep>
  <scstep>
   <time name="diag">    0.22    0.36</time>
   <time name="diis">    1.06    1.32</time>
   <time name="orth">    0.42    0.49</time>
   <time name="total">    2.00    2.63</time>
   <energy>
    <i name="e_fr_energy">   -188.67737258 </i>
    <i name="e_wo_entrp">   -188.61406288 </i>
    <i name="e_0_energy">   -188.65626935 </i>
   </energy>
  </scstep>
  <scstep>
   <time name="diag">    0.26    0.28</time>
   <time name="diis">    0.78    1.32</time>
   <time name="orth">    0.23    0.40</time>
   <time name="total">    1.52    2.30</time>
   <energy>
    <i name="e_fr_energy">   -188.58951622 </i>
    <i name="e_wo_entrp">   -188.58547597 </i>
    <i name="e_0_energy">   -188.58816947 </i>
   </energy>
  </scstep>
  <scstep>
   <time name="diag">    0.32    0.44</time>
   <time name="diis">    0.83    1.28</time>
   <time name="orth">    0.04    0.08</time>
   <time name="total">    1.60    2.36</time>
   <energy>
    <i name="e_fr_energy">   -188.65373199 </i>
    <i name="e_wo_entrp">   -188.59648592 </i>
    <i name="e_0_energy">   -188.63464997 </i>
   </energy>
  </scstep>
  <scstep>
   <time name="diag">    0.16    0.20</time>
   <time name="diis">    0.84    1.15</time>
   <time name="orth">    0.02    0.04</time>
   <time name="total">    1.31    1.77</time>
   <energy>
    <i name="e_fr_energy">   -188.71002560 </i>
    <i name="e_wo_entrp">   -188.69260701 </i>
    <i name="e_0_energy">   -188.70421940 </i>
   </energy>
  </scstep>
  <scstep>
   <time name="diag">    0.29    0.43</time>
   <time name="diis">    1.04    1.40</time>
   <time name="orth">    0.12    0.26</time>
   <time name="total">    1.68    2.40</time>
   <energy>
    <i name="e_fr_energy">   -188.66200524 </i>
    <i name="e_wo_entrp">   -188.65021227 </i>
    <i name="e_0_energy">   -188.65807425 </i>
   </energy>
  </scstep>
  <scstep>
   <time name="diag">    0.17    0.23</time>
   <time name="diis">    0.88    1.36</time>
   <time name="orth">    0.05    0.05</time>
   <time name="total">    1.41    2.07</time>
   <energy>
    <i name="e_fr_energy">   -188.64317109 </i>
    <i name="e_wo_entrp">   -188.65793653 </i>
    <i name="e_0_energy">   -188.64809290 </i>
   </energy>
  </scstep>
  <scstep>
   <time name="diag">    0.25    0.41</time>
   <time name="diis">    0.92    1.50</time>
   <time name="orth">    0.04    0.07</time>
   <time name="total">    1.88    3.14</time>
   <energy>
    <i name="e_fr_energy">   -188.63260819 </i>
    <i name="e_wo_entrp">   -188.62454827 </i>
    <i name="e_0_energy">   -188.62992155 </i>
   </energy>
  </scstep>
  <scstep>
   <time name="diag">    0.29    0.41</time>
   <time name="diis">    0.95    1.40</time>
   <time name="orth">    0.12    0.15</time>
   <time name="total">    1.82    2.53</time>
   <energy>
    <i name="e_fr_energy">   -188.59926113 </i>
    <i name="e_wo_entrp">   -188.61207480 </i>
    <i name="e_0_energy">   -188.60353235 </i>
   </energy>
  </scstep>
  <scstep>
   <time name="diag">    0.34    0.44</time>
   <time name="diis">    0.97    1.34</time>
   <time name="orth">    0.10    0.14</time>
   <time name="total">    1.93    2.75</time>
   <energy>
    <i name="e_fr_energy">   -188.59055271 </i>
    <i name="e_wo_entrp">   -188.59259498 </i>
    <i name="e_0_energy">   -188.59123347 </i>
   </energy>
  </scstep>
  <scstep>
   <time name="diag">    0.17    0.32</time>
   <time name="diis">    0.90    1.28</time>
   <time name="orth">    0.06    0.09</time>
   <time name="total">    1.41    2.12</time>
   <energy>
    <i name="e_fr_energy">   -188.58523424 </i>
    <i name="e_wo_entrp">   -188.59522647 </i>
    <i name="e_0_energy">   -188.58856498 </i>
   </energy>
  </scstep>
  <scstep>
   <time name="diag">    0.20    0.30</time>
   <time name="diis">    0.73    1.16</time>
   <time name="orth">    0.12    0.13</time>
   <time name="total">    1.31    2.03</time>
   <energy>
    <i name="e_fr_energy">   -188.57137981 </i>
    <i name="e_wo_entrp">   -188.58659774 </i>
    <i name="e_0_energy">   -188.57645245 </i>
   </energy>
  </scstep>
  <scstep>
   <time name="diag">    0.18    0.20</time>
   <time name="diis">    0.96    1.35</time>
   <time name="orth">    0.03    0.03</time>
   <time name="total">    1.62    2.19</time>
   <energy>
    <i name="e_fr_energy">   -188.56219106 </i>
    <i name="e_wo_entrp">   -188.57940799 </i>
    <i name="e_0_energy">   -188.56793003 </i>
   </energy>
  </scstep>
  <scstep>
   <time name="diag">    0.41    0.58</time>
   <time name="diis">    0.73    1.10</time>
   <time name="orth">    0.17    0.23</time>
   <time name="total">    1.68    2.31</time>
   <energy>
    <i name="e_fr_energy">   -188.55666483 </i>
    <i name="e_wo_entrp">   -188.57758087 </i>
    <i name="e_0_energy">   -188.56363684 </i>
   </energy>
  </scstep>
  <scstep>
   <time name="diag">    0.15    0.27</time>
   <time name="diis">    0.70    1.11</time>
   <time name="orth">    0.15    0.17</time>
   <time name="total">    1.26    1.92</time>
   <energy>
    <i name="e_fr_energy">   -188.55325426 </i>
    <i name="e_wo_entrp">   -188.57454058 </i>
    <i name="e_0_energy">   -188.56034970 </i>
   </energy>
  </scstep>
  <scstep>
   <time name="diag">    0.34    0.48</time>
   <time name="diis">    0.79    1.10</time>
   <time name="orth">    0.15    0.18</time>
   <time name="total">    1.66    2.37</time>
   <energy>
    <i name="e_fr_energy">   -188.54816429 </i>
    <i name="e_wo_entrp">   -188.57096826 </i>
    <i name="e_0_energy">   -188.55576561 </i>
   </energy>
  </scstep>
  <scstep>
   <time name="diag">    0.27    0.44</time>
   <time name="diis">    0.94    1.11</time>
   <time name="orth">    0.06    0.10</time>
   <time name="total">    1.59    2.06</time>
   <energy>
    <i name="e_fr_energy">   -188.54706688 </i>
    <i name="e_wo_entrp">   -188.56836215 </i>
    <i name="e_0_energy">   -188.55416530 </i>
   </energy>
  </scstep>
  <scstep>
   <time name="diag">    0.27    0.36</time>
   <time name="diis">    0.70    1.18</time>
   <time name="orth">    0.12    0.25</time>
   <time name="total">    1.31    2.15</time>
   <energy>
    <i name="e_fr_energy">   -188.54619656 </i>
    <i name="e_wo_entrp">   -188.56895952 </i>
    <i name="e_0_energy">   -188.55378421 </i>
   </energy>
  </scstep>
  <scstep>
   <time name="diag">    0.15    0.24</time>
   <time name="diis">    0.58    0.90</time>
   <time name="orth">    0.20    0.34</time>
   <time name="total">    1.26    1.92</time>
   <energy>
    <i name="e_fr_energy">   -188.54608324 </i>
    <i name="e_wo_entrp">   -188.56916984 </i>
    <i name="e_0_energy">   -188.55377877 </i>
   </energy>
  </scstep>
  <scstep>
   <time name="diag">    0.32    0.46</time>
   <time name="diis">    0.46    0.74</time>
   <time name="orth">    0.11    0.16</time>
   <time name="total">    1.04    1.51</time>
   <energy>
    <i name="alphaZ">    931.27601724 </i>
    <i name="ewald"> -15919.21357330 </i>
    <i name="hartreedc">  -6893.35693970 </i>
    <i name="XCdc">    917.69777513 </i>
    <i name="pawpsdc">  22334.82783938 </i>
    <i name="pawaedc"> -22544.84838188 </i>
    <i name="eentropy">      0.02331024 </i>
    <i name="bandstr">  -1519.05039029 </i>
    <i name="atom">  22504.09828397 </i>
    <i name="e_fr_energy">   -188.54605919 </i>
    <i name="e_wo_entrp">   -188.56936944 </i>
    <i name="e_0_energy">   -188.55382928 </i>
   </energy>
  </scstep>
  <structure>
   <crystal>
    <varray name="basis" >
     <v>       3.28173000       0.00000000       0.00000000 </v>
     <v>       0.00000000      20.54938400       0.00000000 </v>
     <v>       0.00000000       0.00000000       6.82089600 </v>
    </varray>
    <i name="volume">    459.98437832 </i>
    <varray name="rec_basis" >
     <v>       0.30471733       0.00000000       0.00000000 </v>
     <v>       0.00000000       0.04866326       0.00000000 </v>
     <v>       0.00000000       0.00000000       0.14660830 </v>
    </varray>
   </crystal>
   <varray name="positions" >
    <v>       0.00000000       0.16671900       0.50139100 </v>
    <v>       0.00000000       0.83328100       0.50283800 </v>
    <v>       0.00000000       0.66671900       0.00139100 </v>
    <v>       0.00000000       0.33328100       0.00139100 </v>
    <v>       0.50000000       0.16602100       0.99594000 </v>
    <v>       0.49437200       0.82660600       0.00000400 </v>
    <v>       0.50000000       0.66602100       0.50000400 </v>
    <v>       0.50000000       0.33397900       0.50000400 </v>
    <v>       0.00000000       0.00000000       0.01216200 </v>
    <v>       0.00000000       0.50000000       0.51216200 </v>
    <v>       0.50000000       0.00000000       0.47240000 </v>
    <v>       0.50000000       0.50000000       0.97240000 </v>
    <v>       0.00231500       0.00000000       0.31436200 </v>
    <v>       0.00000000       0.50740100       0.81436200 </v>
    <v>       0.00000000       0.16816900       0.20329900 </v>
    <v>       0.00000000       0.83183100       0.20329900 </v>
    <v>       0.00000000       0.66816900       0.70645700 </v>
    <v>       0.00000000       0.33183100       0.70329900 </v>
    <v>       0.00000000       0.16838200       0.79934600 </v>
    <v>       0.00000000       0.83161800       0.79934600 </v>
    <v>       0.00000000       0.66838200       0.29934600 </v>
    <v>       0.00000000       0.33161800       0.29934600 </v>
    <v>       0.50000000       0.06837200       0.99633700 </v>
    <v>       0.50000000       0.93162800       0.99633700 </v>
    <v>       0.50808600       0.56837200       0.49633700 </v>
    <v>       0.50000000       0.43162800       0.49633700 </v>
    <v>       0.50000000       0.09818400       0.50567900 </v>
    <v>       0.50000000       0.90181600       0.50567900 </v>
    <v>       0.50000000       0.59818400       0.00567900 </v>
    <v>       0.50000000       0.40181600       0.00567900 </v>
    <v>       0.50000000       0.23406000       0.50152500 </v>
    <v>       0.50000000       0.76594000       0.50585300 </v>
    <v>       0.50000000       0.73406000       0.00152500 </v>
    <v>       0.50000000       0.26594000       0.00152500 </v>
    <v>       0.00000000       0.00000000       0.69474100 </v>
    <v>       0.00000000       0.50000000       0.19474100 </v>
   </varray>
  </structure>
  <varray name="forces" >
   <v>      -0.00042695      -0.09459909       0.00347857 </v>
   <v>       0.05838579       0.28013389       0.03320221 </v>
   <v>       0.02099737      -0.32904628       0.06988948 </v>
   <v>       0.00097110       0.01546727       0.09110556 </v>
   <v>       0.00080073       0.26309336       0.40231235 </v>
   <v>       0.13376594       1.41456585       0.06695920 </v>
   <v>       0.06844272       0.24442777       0.20094706 </v>
   <v>       0.00511251      -0.30130379       0.04467019 </v>
   <v>       0.04461601      -0.17105754       0.98328482 </v>
   <v>       0.06717331       0.42949549       1.01453925 </v>
   <v>       0.04380320      -0.01781712       0.07111390 </v>
   <v>       0.00540841       0.60544070      -0.00009614 </v>
   <v>      -0.05845419       0.01450937      -1.06424135 </v>
   <v>       0.00454342      -0.87633363      -1.04080754 </v>
   <v>       0.00009188      -0.18288258      -0.28589417 </v>
   <v>      -0.05997862      -0.29475157      -0.14664900 </v>
   <v>       0.00447755      -0.14572677      -0.27934199 </v>
   <v>      -0.00009302       0.20672978      -0.18743005 </v>
   <v>       0.00014232      -0.18028061      -0.00034932 </v>
   <v>      -0.06376125      -0.28398852       0.14786263 </v>
   <v>       0.00498145      -0.15881865       0.07631551 </v>
   <v>       0.00023313       0.18859100       0.13795312 </v>
   <v>      -0.00127421      -0.51912893       0.17709695 </v>
   <v>      -0.03736825       0.48769686       0.23239607 </v>
   <v>      -0.11731483      -0.49146793       0.15342898 </v>
   <v>      -0.03003229       0.47472154       0.25653764 </v>
   <v>       0.00365759       0.80815159      -0.18172659 </v>
   <v>       0.00014834      -0.81997241      -0.18726714 </v>
   <v>      -0.00586007       0.90589791      -0.10604215 </v>
   <v>      -0.00041755      -0.65757998      -0.26056493 </v>
   <v>      -0.00187205      -0.37120824      -0.01584222 </v>
   <v>      -0.01948403       0.33157775      -0.10133998 </v>
   <v>      -0.05017678      -0.84169932      -0.01327799 </v>
   <v>      -0.00002781       0.39073991      -0.06641876 </v>
   <v>      -0.02487082       0.01868358      -0.13989606 </v>
   <v>       0.00365996      -0.34226064      -0.08590811 </v>
  </varray>
  <varray name="stress" >
   <v>    -257.07985004       0.15068855      -0.09112572 </v>
   <v>       0.15069004    -255.15075430      -0.60018597 </v>
   <v>      -0.09112635      -0.60018727    -287.05169633 </v>
  </varray>
  <energy>
   <i name="e_fr_energy">   -188.54605919 </i>
   <i name="e_wo_entrp">   -188.55382928 </i>
   <i name="e_0_energy">      0.02331024 </i>
  </energy>
  <time name="totalsc">   76.83  111.18</time>
  <eigenvalues>
   <array>
    <dimension dim="1">band</dimension>
    <dimension dim="2">kpoint</dimension>
    <dimension dim="3">spin</dimension>
    <field>eigene</field>
    <field>occ</field>
    <set>
     <set comment="spin 1">
      <set comment="kpoint 1">
       <r>  -23.0289    1.0000 </r>
       <r>  -22.7722    1.0000 </r>
       <r>  -22.6462    1.0000 </r>
       <r>  -22.6254    1.0000 </r>
       <r>  -22.5788    1.0000 </r>
       <r>  -22.4508    1.0000 </r>
       <r>  -22.3890    1.0000 </r>
       <r>  -22.3510    1.0000 </r>
       <r>  -22.3463    1.0000 </r>
       <r>  -22.3171    1.0000 </r>
       <r>  -22.3014    1.0000 </r>
       <r>  -22.2995    1.0000 </r>
       <r>  -22.2759    1.0000 </r>
       <r>  -22.2721    1.0000 </r>
       <r>  -22.2283    1.0000 </r>
       <r>  -22.2078    1.0000 </r>
       <r>  -22.1927    1.0000 </r>
       <r>  -22.1735    1.0000 </r>
       <r>  -22.1267    1.0000 </r>
       <r>  -21.8455    1.0000 </r>
       <r>  -20.9599    1.0000 </r>
       <r>  -20.9481    1.0000 </r>
       <r>  -16.5531    1.0000 </r>
       <r>  -16.5321    1.0000 </r>
       <r>   -6.2618    1.0000 </r>
       <r>   -6.1359    1.0000 </r>
       <r>   -5.9201    1.0000 </r>
       <r>   -5.8583    1.0000 </r>
       <r>   -5.7888    1.0000 </r>
       <r>   -5.5751    1.0000 </r>
       <r>   -5.4474    1.0000 </r>
       <r>   -5.3249    1.0000 </r>
       <r>   -5.3032    1.0000 </r>
       <r>   -5.1763    1.0000 </r>
       <r>   -4.7797    1.0000 </r>
       <r>   -4.6652    1.0000 </r>
       <r>   -4.6491    1.0000 </r>
       <r>   -4.6071    1.0000 </r>
       <r>   -4.5398    1.0000 </r>
       <r>   -4.4336    1.0000 </r>
       <r>   -4.4302    1.0000 </r>
       <r>   -4.3948    1.0000 </r>
       <r>   -4.3506    1.0000 </r>
       <r>   -4.3488    1.0000 </r>
       <r>   -4.3345    1.0000 </r>
       <r>   -4.3230    1.0000 </r>
       <r>   -4.3092    1.0000 </r>
       <r>   -4.2743    1.0000 </r>
       <r>   -4.2687    1.0000 </r>
       <r>   -4.2411    1.0000 </r>
       <r>   -4.2404    1.0000 </r>
       <r>   -4.2289    1.0000 </r>
       <r>   -4.2056    1.0000 </r>
       <r>   -4.1927    1.0000 </r>
       <r>   -4.1684    1.0000 </r>
       <r>   -4.1294    1.0000 </r>
       <r>   -4.1166    1.0000 </r>
       <r>   -4.1050    1.0000 </r>
       <r>   -4.0666    1.0000 </r>
       <r>   -3.9981    1.0000 </r>
       <r>   -3.9928    1.0000 </r>
       <r>   -3.9465    1.0000 </r>
       <r>   -3.9039    1.0000 </r>
       <r>   -3.7802    1.0000 </r>
       <r>   -3.6676    1.0000 </r>
       <r>   -3.6461    1.0000 </r>
       <r>   -3.6349    1.0000 </r>
       <r>   -3.5781    1.0000 </r>
       <r>   -3.5666    1.0000 </r>
       <r>   -3.5514    1.0000 </r>
       <r>   -3.4300    1.0000 </r>
       <r>   -3.4034    1.0000 </r>
       <r>   -3.3450    1.0000 </r>
       <r>   -3.3324    1.0000 </r>
       <r>   -3.2988    1.0000 </r>
       <r>   -3.2942    1.0000 </r>
       <r>   -3.2220    1.0000 </r>
       <r>   -3.1875    1.0000 </r>
       <r>   -3.1500    1.0000 </r>
       <r>   -3.1459    1.0000 </r>
       <r>   -3.1417    1.0000 </r>
       <r>   -3.0944    1.0000 </r>
       <r>   -3.0569    1.0000 </r>
       <r>   -2.9791    1.0000 </r>
       <r>   -2.9157    1.0000 </r>
       <r>   -2.8802    1.0000 </r>
       <r>   -2.7365    1.0000 </r>
       <r>   -2.6765    1.0000 </r>
       <r>   -2.0671    1.0000 </r>
       <r>   -2.0640    1.0000 </r>
       <r>   -2.0267    1.0000 </r>
       <r>   -1.9861    1.0000 </r>
       <r>   -1.8259    1.0000 </r>
       <r>   -1.8055    1.0000 </r>
       <r>   -1.3034    1.0000 </r>
       <r>   -1.2883    1.0000 </r>
       <r>    0.7205    1.0000 </r>
       <r>    0.7642    1.0000 </r>
       <r>    0.8015    1.0000 </r>
       <r>    0.8333    1.0000 </r>
       <r>    0.8477    1.0000 </r>
       <r>    0.8726    1.0000 </r>
       <r>    0.8818    1.0000 </r>
       <r>    0.9012    1.0000 </r>
       <r>    0.9065    1.0000 </r>
       <r>    0.9262    1.0000 </r>
       <r>    0.9573    1.0000 </r>
       <r>    0.9776    1.0000 </r>
       <r>    1.0412    1.0000 </r>
       <r>    1.0468    1.0000 </r>
       <r>    1.0526    1.0000 </r>
       <r>    1.0557    1.0000 </r>
       <r>    1.1078    1.0001 </r>
       <r>    1.1342    1.0001 </r>
       <r>    1.1385    1.0002 </r>
       <r>    1.1462    1.0002 </r>
       <r>    1.1646    1.0003 </r>
       <r>    1.1783    1.0005 </r>
       <r>    1.2103    1.0010 </r>
       <r>    1.2317    1.0016 </r>
       <r>    1.2339    1.0017 </r>
       <r>    1.2634    1.0031 </r>
       <r>    1.2729    1.0037 </r>
       <r>    1.3753    1.0181 </r>
       <r>    1.4239    1.0291 </r>
       <r>    1.4850    1.0348 </r>
       <r>    1.5428    1.0062 </r>
       <r>    1.5645    0.9800 </r>
       <r>    1.6246    0.8490 </r>
       <r>    1.6561    0.7453 </r>
       <r>    1.7015    0.5657 </r>
       <r>    1.7105    0.5279 </r>
       <r>    1.7684    0.2909 </r>
       <r>    1.8305    0.0953 </r>
       <r>    1.8355    0.0837 </r>
       <r>    1.9212   -0.0271 </r>
       <r>    1.9690   -0.0353 </r>
       <r>    1.9792   -0.0345 </r>
       <r>    1.9937   -0.0324 </r>
       <r>    1.9981   -0.0316 </r>
       <r>    2.0175   -0.0276 </r>
       <r>    2.0436   -0.0216 </r>
       <r>    2.1035   -0.0099 </r>
       <r>    2.1184   -0.0078 </r>
       <r>    2.1228   -0.0073 </r>
       <r>    2.2146   -0.0012 </r>
       <r>    2.2350   -0.0008 </r>
       <r>    2.2376   -0.0007 </r>
       <r>    2.2397   -0.0007 </r>
       <r>    2.3058   -0.0001 </r>
       <r>    2.4261   -0.0000 </r>
       <r>    2.7680   -0.0000 </r>
       <r>    2.9441   -0.0000 </r>
       <r>    3.0625   -0.0000 </r>
       <r>    3.1052   -0.0000 </r>
       <r>    3.1141   -0.0000 </r>
       <r>    3.9583   -0.0000 </r>
       <r>    4.4325   -0.0000 </r>
       <r>    4.7980   -0.0000 </r>
       <r>    6.1064   -0.0000 </r>
      </set>
     </set>
    </set>
   </array>
  </eigenvalues>
  <separator name="orbital magnetization" >
   <v name="MAGDIPOLOUT">      0.00000000      0.00000000      0.00000000</v>
  </separator>
  <dos>
   <i name="efermi">      1.71713037 </i>
   <total>
    <array>
     <dimension dim="1">gridpoints</dimension>
     <dimension dim="2">spin</dimension>
     <field>energy</field>
     <field>total</field>
     <field>integrated</field>
     <set>
      <set comment="spin 1">
       <r>   -25.0289     0.0000     0.0000 </r>
       <r>   -24.9184     0.0000     0.0000 </r>
       <r>   -24.8080     0.0000     0.0000 </r>
       <r>   -24.6975    -0.0000    -0.0000 </r>
       <r>   -24.5871    -0.0000    -0.0000 </r>
       <r>   -24.4766    -0.0000    -0.0000 </r>
       <r>   -24.3662    -0.0000    -0.0000 </r>
       <r>   -24.2557    -0.0000    -0.0000 </r>
       <r>   -24.1453    -0.0000    -0.0000 </r>
       <r>   -24.0348    -0.0000    -0.0000 </r>
       <r>   -23.9244    -0.0000    -0.0000 </r>
       <r>   -23.8139    -0.0000    -0.0000 </r>
       <r>   -23.7035    -0.0002    -0.0000 </r>
       <r>   -23.5930    -0.0043    -0.0005 </r>
       <r>   -23.4826    -0.0510    -0.0061 </r>
       <r>   -23.3721    -0.2695    -0.0359 </r>
       <r>   -23.2617    -0.3342    -0.0728 </r>
       <r>   -23.1512     1.7798     0.1238 </r>
       <r>   -23.0408     6.0956     0.7970 </r>
       <r>   -22.9303     7.3096     1.6044 </r>
       <r>   -22.8199     8.0284     2.4911 </r>
       <r>   -22.7094    16.0915     4.2685 </r>
       <r>   -22.5990    24.5296     6.9778 </r>
       <r>   -22.4885    29.8352    10.2731 </r>
       <r>   -22.3781    52.2216    16.0411 </r>
       <r>   -22.2676    83.4296    25.2560 </r>
       <r>   -22.1572    77.5563    33.8221 </r>
       <r>   -22.0467    36.8409    37.8913 </r>
       <r>   -21.9363     8.2600    38.8036 </r>
       <r>   -21.8258     4.9061    39.3455 </r>
       <r>   -21.7154     5.1319    39.9123 </r>
       <r>   -21.6049     1.4563    40.0731 </r>
       <r>   -21.4945    -0.3841    40.0307 </r>
       <r>   -21.3840    -0.4046    39.9860 </r>
       <r>   -21.2736    -0.7093    39.9077 </r>
       <r>   -21.1631    -0.2133    39.8841 </r>
       <r>   -21.0527     5.9074    40.5366 </r>
       <r>   -20.9422    15.0566    42.1996 </r>
       <r>   -20.8318    13.5710    43.6985 </r>
       <r>   -20.7213     3.9847    44.1387 </r>
       <r>   -20.6109    -0.6080    44.0715 </r>
       <r>   -20.5004    -0.5360    44.0123 </r>
       <r>   -20.3899    -0.1025    44.0010 </r>
       <r>   -20.2795    -0.0086    44.0000 </r>
       <r>   -20.1690    -0.0004    44.0000 </r>
       <r>   -20.0586    -0.0000    44.0000 </r>
       <r>   -19.9481    -0.0000    44.0000 </r>
       <r>   -19.8377    -0.0000    44.0000 </r>
       <r>   -19.7272    -0.0000    44.0000 </r>
       <r>   -19.6168    -0.0000    44.0000 </r>
       <r>   -19.5063     0.0000    44.0000 </r>
       <r>   -19.3959     0.0000    44.0000 </r>
       <r>   -19.2854     0.0000    44.0000 </r>
       <r>   -19.1750     0.0000    44.0000 </r>
       <r>   -19.0645     0.0000    44.0000 </r>
       <r>   -18.9541     0.0000    44.0000 </r>
       <r>   -18.8436     0.0000    44.0000 </r>
       <r>   -18.7332     0.0000    44.0000 </r>
       <r>   -18.6227     0.0000    44.0000 </r>
       <r>   -18.5123     0.0000    44.0000 </r>
       <r>   -18.4018     0.0000    44.0000 </r>
       <r>   -18.2914     0.0000    44.0000 </r>
       <r>   -18.1809    -0.0000    44.0000 </r>
       <r>   -18.0705    -0.0000    44.0000 </r>
       <r>   -17.9600    -0.0000    44.0000 </r>
       <r>   -17.8496    -0.0000    44.0000 </r>
       <r>   -17.7391    -0.0000    44.0000 </r>
       <r>   -17.6287    -0.0000    44.0000 </r>
       <r>   -17.5182    -0.0000    44.0000 </r>
       <r>   -17.4078    -0.0000    44.0000 </r>
       <r>   -17.2973    -0.0000    44.0000 </r>
       <r>   -17.1869    -0.0009    43.9999 </r>
       <r>   -17.0764    -0.0186    43.9978 </r>
       <r>   -16.9660    -0.1780    43.9782 </r>
       <r>   -16.8555    -0.6967    43.9012 </r>
       <r>   -16.7451    -0.0302    43.8979 </r>
       <r>   -16.6346     6.4992    44.6157 </r>
       <r>   -16.5242    15.3321    46.3092 </r>
       <r>   -16.4137    13.0480    47.7503 </r>
       <r>   -16.3033     3.5227    48.1394 </r>
       <r>   -16.1928    -0.6634    48.0662 </r>
       <r>   -16.0824    -0.4998    48.0109 </r>
       <r>   -15.9719    -0.0913    48.0009 </r>
       <r>   -15.8615    -0.0075    48.0000 </r>
       <r>   -15.7510    -0.0003    48.0000 </r>
       <r>   -15.6406    -0.0000    48.0000 </r>
       <r>   -15.5301    -0.0000    48.0000 </r>
       <r>   -15.4196    -0.0000    48.0000 </r>
       <r>   -15.3092    -0.0000    48.0000 </r>
       <r>   -15.1987     0.0000    48.0000 </r>
       <r>   -15.0883     0.0000    48.0000 </r>
       <r>   -14.9778     0.0000    48.0000 </r>
       <r>   -14.8674     0.0000    48.0000 </r>
       <r>   -14.7569     0.0000    48.0000 </r>
       <r>   -14.6465     0.0000    48.0000 </r>
       <r>   -14.5360     0.0000    48.0000 </r>
       <r>   -14.4256     0.0000    48.0000 </r>
       <r>   -14.3151     0.0000    48.0000 </r>
       <r>   -14.2047     0.0000    48.0000 </r>
       <r>   -14.0942     0.0000    48.0000 </r>
       <r>   -13.9838     0.0000    48.0000 </r>
       <r>   -13.8733     0.0000    48.0000 </r>
       <r>   -13.7629     0.0000    48.0000 </r>
       <r>   -13.6524     0.0000    48.0000 </r>
       <r>   -13.5420     0.0000    48.0000 </r>
       <r>   -13.4315     0.0000    48.0000 </r>
       <r>   -13.3211     0.0000    48.0000 </r>
       <r>   -13.2106     0.0000    48.0000 </r>
       <r>   -13.1002     0.0000    48.0000 </r>
       <r>   -12.9897     0.0000    48.0000 </r>
       <r>   -12.8793     0.0000    48.0000 </r>
       <r>   -12.7688     0.0000    48.0000 </r>
       <r>   -12.6584     0.0000    48.0000 </r>
       <r>   -12.5479     0.0000    48.0000 </r>
       <r>   -12.4375     0.0000    48.0000 </r>
       <r>   -12.3270     0.0000    48.0000 </r>
       <r>   -12.2166     0.0000    48.0000 </r>
       <r>   -12.1061     0.0000    48.0000 </r>
       <r>   -11.9957     0.0000    48.0000 </r>
       <r>   -11.8852     0.0000    48.0000 </r>
       <r>   -11.7748     0.0000    48.0000 </r>
       <r>   -11.6643     0.0000    48.0000 </r>
       <r>   -11.5539     0.0000    48.0000 </r>
       <r>   -11.4434     0.0000    48.0000 </r>
       <r>   -11.3330     0.0000    48.0000 </r>
       <r>   -11.2225     0.0000    48.0000 </r>
       <r>   -11.1121     0.0000    48.0000 </r>
       <r>   -11.0016     0.0000    48.0000 </r>
       <r>   -10.8912     0.0000    48.0000 </r>
       <r>   -10.7807     0.0000    48.0000 </r>
       <r>   -10.6703     0.0000    48.0000 </r>
       <r>   -10.5598     0.0000    48.0000 </r>
       <r>   -10.4493     0.0000    48.0000 </r>
       <r>   -10.3389     0.0000    48.0000 </r>
       <r>   -10.2284     0.0000    48.0000 </r>
       <r>   -10.1180     0.0000    48.0000 </r>
       <r>   -10.0075     0.0000    48.0000 </r>
       <r>    -9.8971     0.0000    48.0000 </r>
       <r>    -9.7866     0.0000    48.0000 </r>
       <r>    -9.6762     0.0000    48.0000 </r>
       <r>    -9.5657     0.0000    48.0000 </r>
       <r>    -9.4553     0.0000    48.0000 </r>
       <r>    -9.3448     0.0000    48.0000 </r>
       <r>    -9.2344     0.0000    48.0000 </r>
       <r>    -9.1239     0.0000    48.0000 </r>
       <r>    -9.0135     0.0000    48.0000 </r>
       <r>    -8.9030     0.0000    48.0000 </r>
       <r>    -8.7926     0.0000    48.0000 </r>
       <r>    -8.6821     0.0000    48.0000 </r>
       <r>    -8.5717     0.0000    48.0000 </r>
       <r>    -8.4612     0.0000    48.0000 </r>
       <r>    -8.3508     0.0000    48.0000 </r>
       <r>    -8.2403     0.0000    48.0000 </r>
       <r>    -8.1299     0.0000    48.0000 </r>
       <r>    -8.0194     0.0000    48.0000 </r>
       <r>    -7.9090    -0.0000    48.0000 </r>
       <r>    -7.7985    -0.0000    48.0000 </r>
       <r>    -7.6881    -0.0000    48.0000 </r>
       <r>    -7.5776    -0.0000    48.0000 </r>
       <r>    -7.4672    -0.0000    48.0000 </r>
       <r>    -7.3567    -0.0000    48.0000 </r>
       <r>    -7.2463    -0.0000    48.0000 </r>
       <r>    -7.1358    -0.0000    48.0000 </r>
       <r>    -7.0254    -0.0000    48.0000 </r>
       <r>    -6.9149    -0.0004    48.0000 </r>
       <r>    -6.8045    -0.0075    47.9991 </r>
       <r>    -6.6940    -0.0804    47.9902 </r>
       <r>    -6.5836    -0.3845    47.9478 </r>
       <r>    -6.4731    -0.4256    47.9008 </r>
       <r>    -6.3627     2.5000    48.1769 </r>
       <r>    -6.2522     9.2144    49.1946 </r>
       <r>    -6.1418    12.9993    50.6304 </r>
       <r>    -6.0313    11.9359    51.9488 </r>
       <r>    -5.9209    15.5061    53.6614 </r>
       <r>    -5.8104    20.7120    55.9491 </r>
       <r>    -5.7000    16.3305    57.7528 </r>
       <r>    -5.5895    10.9984    58.9676 </r>
       <r>    -5.4790    13.8780    60.5004 </r>
       <r>    -5.3686    20.4596    62.7602 </r>
       <r>    -5.2581    23.4625    65.3517 </r>
       <r>    -5.1477    17.2592    67.2580 </r>
       <r>    -5.0372     6.1160    67.9335 </r>
       <r>    -4.9268     0.2524    67.9614 </r>
       <r>    -4.8163     5.6025    68.5802 </r>
       <r>    -4.7059    19.3506    70.7175 </r>
       <r>    -4.5954    30.3089    74.0651 </r>
       <r>    -4.4850    39.7532    78.4559 </r>
       <r>    -4.3745    67.9666    85.9629 </r>
       <r>    -4.2641   103.0104    97.3405 </r>
       <r>    -4.1536   106.3360   109.0854 </r>
       <r>    -4.0432    78.9758   117.8084 </r>
       <r>    -3.9327    48.5199   123.1675 </r>
       <r>    -3.8223    28.2138   126.2837 </r>
       <r>    -3.7118    27.9690   129.3729 </r>
       <r>    -3.6014    42.6549   134.0842 </r>
       <r>    -3.4909    47.4945   139.3300 </r>
       <r>    -3.3805    47.3793   144.5631 </r>
       <r>    -3.2700    56.9809   150.8567 </r>
       <r>    -3.1596    64.5783   157.9895 </r>
       <r>    -3.0491    57.3241   164.3210 </r>
       <r>    -2.9387    40.1079   168.7509 </r>
       <r>    -2.8282    27.0076   171.7340 </r>
       <r>    -2.7178    20.6762   174.0177 </r>
       <r>    -2.6073    14.1522   175.5808 </r>
       <r>    -2.4969     4.7434   176.1047 </r>
       <r>    -2.3864    -1.3167   175.9593 </r>
       <r>    -2.2760    -1.7932   175.7612 </r>
       <r>    -2.1655     6.8594   176.5189 </r>
       <r>    -2.0551    24.7570   179.2533 </r>
       <r>    -1.9446    33.1427   182.9139 </r>
       <r>    -1.8342    26.3685   185.8264 </r>
       <r>    -1.7237    15.6909   187.5594 </r>
       <r>    -1.6133     4.5056   188.0571 </r>
       <r>    -1.5028    -0.5833   187.9927 </r>
       <r>    -1.3924     5.3502   188.5836 </r>
       <r>    -1.2819    14.9707   190.2371 </r>
       <r>    -1.1715    13.3880   191.7158 </r>
       <r>    -1.0610     3.8320   192.1391 </r>
       <r>    -0.9506    -0.6277   192.0698 </r>
       <r>    -0.8401    -0.5243   192.0119 </r>
       <r>    -0.7297    -0.0988   192.0009 </r>
       <r>    -0.6192    -0.0082   192.0000 </r>
       <r>    -0.5087    -0.0003   192.0000 </r>
       <r>    -0.3983    -0.0000   192.0000 </r>
       <r>    -0.2878    -0.0000   192.0000 </r>
       <r>    -0.1774    -0.0000   192.0000 </r>
       <r>    -0.0669    -0.0000   192.0000 </r>
       <r>     0.0435    -0.0002   192.0000 </r>
       <r>     0.1540    -0.0060   191.9993 </r>
       <r>     0.2644    -0.0870   191.9897 </r>
       <r>     0.3749    -0.6448   191.9185 </r>
       <r>     0.4853    -2.1644   191.6794 </r>
       <r>     0.5958    -0.7891   191.5923 </r>
       <r>     0.7062    16.2947   193.3920 </r>
       <r>     0.8167    53.3751   199.2874 </r>
       <r>     0.9271    86.0444   208.7911 </r>
       <r>     1.0376    98.2369   219.6414 </r>
       <r>     1.1480   102.3833   230.9498 </r>
       <r>     1.2585    90.2178   240.9145 </r>
       <r>     1.3689    57.5689   247.2730 </r>
       <r>     1.4794    37.2305   251.3852 </r>
       <r>     1.5898    40.7827   255.8897 </r>
       <r>     1.7003    47.8936   261.1796 </r>
       <r>     1.8107    48.6094   266.5485 </r>
       <r>     1.9212    55.3688   272.6641 </r>
       <r>     2.0316    70.3857   280.4382 </r>
       <r>     2.1421    73.9065   288.6013 </r>
       <r>     2.2525    61.9711   295.4461 </r>
       <r>     2.3630    40.0944   299.8745 </r>
       <r>     2.4734    16.7215   301.7215 </r>
       <r>     2.5839     3.5909   302.1181 </r>
       <r>     2.6943     2.6235   302.4078 </r>
       <r>     2.8048     7.5192   303.2384 </r>
       <r>     2.9152    13.0024   304.6745 </r>
       <r>     3.0257    21.9993   307.1043 </r>
       <r>     3.1361    27.0240   310.0892 </r>
       <r>     3.2466    16.4316   311.9040 </r>
       <r>     3.3570     2.7892   312.2121 </r>
       <r>     3.4675    -1.2621   312.0727 </r>
       <r>     3.5779    -0.7564   311.9892 </r>
       <r>     3.6884    -0.5008   311.9339 </r>
       <r>     3.7988     0.7918   312.0213 </r>
       <r>     3.9093     5.2175   312.5976 </r>
       <r>     4.0197     7.9984   313.4810 </r>
       <r>     4.1302     4.2753   313.9532 </r>
       <r>     4.2406     0.6165   314.0213 </r>
       <r>     4.3511     3.2583   314.3812 </r>
       <r>     4.4616     7.4712   315.2064 </r>
       <r>     4.5720     5.8298   315.8503 </r>
       <r>     4.6825     3.6299   316.2513 </r>
       <r>     4.7929     6.6497   316.9857 </r>
       <r>     4.9034     7.1306   317.7733 </r>
       <r>     5.0138     2.6258   318.0633 </r>
       <r>     5.1243    -0.1817   318.0433 </r>
       <r>     5.2347    -0.3151   318.0085 </r>
       <r>     5.3452    -0.0697   318.0008 </r>
       <r>     5.4556    -0.0069   318.0000 </r>
       <r>     5.5661    -0.0080   317.9991 </r>
       <r>     5.6765    -0.0786   317.9904 </r>
       <r>     5.7870    -0.3332   317.9536 </r>
       <r>     5.8974    -0.1088   317.9416 </r>
       <r>     6.0079     2.9524   318.2677 </r>
       <r>     6.1183     7.5385   319.1003 </r>
       <r>     6.2288     6.7904   319.8504 </r>
       <r>     6.3392     1.9857   320.0697 </r>
       <r>     6.4497    -0.3077   320.0357 </r>
       <r>     6.5601    -0.2678   320.0061 </r>
       <r>     6.6706    -0.0509   320.0005 </r>
       <r>     6.7810    -0.0043   320.0000 </r>
       <r>     6.8915    -0.0002   320.0000 </r>
       <r>     7.0019    -0.0000   320.0000 </r>
       <r>     7.1124    -0.0000   320.0000 </r>
       <r>     7.2228    -0.0000   320.0000 </r>
       <r>     7.3333    -0.0000   320.0000 </r>
       <r>     7.4437     0.0000   320.0000 </r>
       <r>     7.5542     0.0000   320.0000 </r>
       <r>     7.6646     0.0000   320.0000 </r>
       <r>     7.7751     0.0000   320.0000 </r>
       <r>     7.8855     0.0000   320.0000 </r>
       <r>     7.9960     0.0000   320.0000 </r>
       <r>     8.1064     0.0000   320.0000 </r>
      </set>
     </set>
    </array>
   </total>
  </dos>
 </calculation>
 <structure name="finalpos" >
  <crystal>
   <varray name="basis" >
    <v>       3.28173000       0.00000000       0.00000000 </v>
    <v>       0.00000000      20.54938400       0.00000000 </v>
    <v>       0.00000000       0.00000000       6.82089600 </v>
   </varray>
   <i name="volume">    459.98437832 </i>
   <varray name="rec_basis" >
    <v>       0.30471733       0.00000000       0.00000000 </v>
    <v>       0.00000000       0.04866326       0.00000000 </v>
    <v>       0.00000000       0.00000000       0.14660830 </v>
   </varray>
  </crystal>
  <varray name="positions" >
   <v>       0.00000000       0.16671900       0.50139100 </v>
   <v>       0.00000000       0.83328100       0.50283800 </v>
   <v>       0.00000000       0.66671900       0.00139100 </v>
   <v>       0.00000000       0.33328100       0.00139100 </v>
   <v>       0.50000000       0.16602100       0.99594000 </v>
   <v>       0.49437200       0.82660600       0.00000400 </v>
   <v>       0.50000000       0.66602100       0.50000400 </v>
   <v>       0.50000000       0.33397900       0.50000400 </v>
   <v>       0.00000000       0.00000000       0.01216200 </v>
   <v>       0.00000000       0.50000000       0.51216200 </v>
   <v>       0.50000000       0.00000000       0.47240000 </v>
   <v>       0.50000000       0.50000000       0.97240000 </v>
   <v>       0.00231500       0.00000000       0.31436200 </v>
   <v>       0.00000000       0.50740100       0.81436200 </v>
   <v>       0.00000000       0.16816900       0.20329900 </v>
   <v>       0.00000000       0.83183100       0.20329900 </v>
   <v>       0.00000000       0.66816900       0.70645700 </v>
   <v>       0.00000000       0.33183100       0.70329900 </v>
   <v>       0.00000000       0.16838200       0.79934600 </v>
   <v>       0.00000000       0.83161800       0.79934600 </v>
   <v>       0.00000000       0.66838200       0.29934600 </v>
   <v>       0.00000000       0.33161800       0.29934600 </v>
   <v>       0.50000000       0.06837200       0.99633700 </v>
   <v>       0.50000000       0.93162800       0.99633700 </v>
   <v>       0.50808600       0.56837200       0.49633700 </v>
   <v>       0.50000000       0.43162800       0.49633700 </v>
   <v>       0.50000000       0.09818400       0.50567900 </v>
   <v>       0.50000000       0.90181600       0.50567900 </v>
   <v>       0.50000000       0.59818400       0.00567900 </v>
   <v>       0.50000000       0.40181600       0.00567900 </v>
   <v>       0.50000000       0.23406000       0.50152500 </v>
   <v>       0.50000000       0.76594000       0.50585300 </v>
   <v>       0.50000000       0.73406000       0.00152500 </v>
   <v>       0.50000000       0.26594000       0.00152500 </v>
   <v>       0.00000000       0.00000000       0.69474100 </v>
   <v>       0.00000000       0.50000000       0.19474100 </v>
  </varray>
 </structure>
</modeling>
