
  ___ ___ ___ _ _ _  
 |   |   |_  | | | | 
 | | | | | . | | | | 
 |__ |  _|___|_____|  1.4.0
 |___|_|             

User:   murakami@tssm1.eng.shizuoka.ac.jp
Date:   Tue Mar 26 20:41:26 2019
Arch:   x86_64
Pid:    31289
Python: 3.6.5
gpaw:   /home/murakami/.local/lib/python3.6/site-packages/gpaw
_gpaw:  /home/murakami/.local/lib/python3.6/site-packages/
        _gpaw.cpython-36m-x86_64-linux-gnu.so
ase:    /home/murakami/.local/lib/python3.6/site-packages/ase (version 3.16.2)
numpy:  /home/murakami/.local/lib/python3.6/site-packages/numpy (version 1.15.2)
scipy:  /home/murakami/.local/lib/python3.6/site-packages/scipy (version 1.1.0)
units:  Angstrom and eV
cores:  1

Input parameters:
  kpts: {size: (1, 1, 1)}
  maxiter: 300
  xc: PBE

System changes: positions, numbers, cell, pbc, initial_charges, initial_magmoms 

Initialize ...

Fe-setup:
  name: Iron
  id: 37abbd8d6c3c35915a9b583b742da910
  Z: 26
  valence: 8
  core: 18
  charge: 0.0
  file: /home/murakami/Public/gpaw-setups-0.9.20000/Fe.PBE.gz
  cutoffs: 1.06(comp), 2.06(filt), 2.67(core), lmax=2
  valence states:
                energy  radius
    4s(2.00)    -5.291   1.164
    4p(0.00)    -1.326   1.058
    3d(6.00)    -7.505   1.058
    *s          21.920   1.164
    *p          25.885   1.058
    *d          19.706   1.058

  Using partial waves for Fe as LCAO basis

O-setup:
  name: Oxygen
  id: 32ecd46bf208036f09c70b0ec9a88b78
  Z: 8
  valence: 6
  core: 2
  charge: 0.0
  file: /home/murakami/Public/gpaw-setups-0.9.20000/O.PBE.gz
  cutoffs: 0.67(comp), 1.17(filt), 0.83(core), lmax=2
  valence states:
                energy  radius
    2s(2.00)   -23.961   0.688
    2p(4.00)    -9.029   0.598
    *s           3.251   0.688
    *p          18.182   0.598
    *d           0.000   0.619

  Using partial waves for O as LCAO basis

F-setup:
  name: Fluorine
  id: 9cd46ba2a61e170ad72278be75b55cc0
  Z: 9
  valence: 7
  core: 2
  charge: 0.0
  file: /home/murakami/Public/gpaw-setups-0.9.20000/F.PBE.gz
  cutoffs: 0.64(comp), 1.14(filt), 0.74(core), lmax=2
  valence states:
                energy  radius
    2s(2.00)   -29.898   0.635
    2p(5.00)   -11.110   0.635
    *s          -2.687   0.635
    *p          16.102   0.635
    *d           0.000   0.635

  Using partial waves for F as LCAO basis

Reference energy: -319034.472395

Spin-paired calculation

Occupation numbers:
  Fermi-Dirac: width=0.1000 eV

Convergence criteria:
  Maximum total energy change: 0.0005 eV / electron
  Maximum integral of absolute density change: 0.0001 electrons
  Maximum integral of absolute eigenstate change: 4e-08 eV^2
  Maximum number of iterations: 300

Symmetries present (total): 1

  ( 1  0  0)
  ( 0  1  0)
  ( 0  0  1)

1 k-point (Gamma)
1 k-point in the irreducible part of the Brillouin zone
       k-points in crystal coordinates                weights
   0:     0.00000000    0.00000000    0.00000000          1/1

Wave functions: Uniform real-space grid
  Kinetic energy operator: 8*3+1=25 point O(h^6) finite-difference Laplacian
  ScaLapack parameters: grid=1x1, blocksize=None 

Eigensolver
   Davidson(niter=1, smin=None, normalize=True) 

Densities:
  Coarse grid: 28*24*52 grid
  Fine grid: 56*48*104 grid
  Total Charge: 0.000000 

Density mixing:
  Method: separate
  Backend: pulay
  Linear mixing parameter: 0.05
  Mixing with 5 old densities
  Damping of long wave oscillations: 50 

Hamiltonian:
  XC and Coulomb potentials evaluated on a 56*48*104 grid
  Using the PBE Exchange-Correlation functional
  Interpolation: tri-quintic (5. degree polynomial)
  Poisson solver: Jacobi solver with 4 multi-grid levels
    Coarsest grid: 7 x 6 x 13 points
    Stencil: 8*3+1=25 point O(h^6) finite-difference Laplacian
    Max iterations: 1000
    Tolerance: 2.000000e-10 

Memory estimate:
  Process memory now: 357.29 MiB
  Calculator: 140.46 MiB
    Density: 46.49 MiB
      Arrays: 6.93 MiB
      Localized functions: 36.90 MiB
      Mixer: 2.67 MiB
    Hamiltonian: 12.49 MiB
      Arrays: 4.53 MiB
      XC: 0.00 MiB
      Poisson: 5.17 MiB
      vbar: 2.79 MiB
    Wavefunctions: 81.47 MiB
      Arrays psit_nG: 36.26 MiB
      Eigensolver: 39.01 MiB
      Projections: 0.37 MiB
      Projectors: 5.84 MiB

Total number of cores used: 1

Number of atoms: 24
Number of atomic orbitals: 136
Number of bands in calculation: 136
Bands to converge: occupied states only
Number of valence electrons: 174

... initialized

Initializing position-dependent things.

Density initialized from atomic densities
Creating initial wave functions:
  136 bands from LCAO basis set

                                 
                                 
                                 
                                 
                Fe               
                     O           
                      Fe         
          FF   F    Fe           
                      F          
           Fe                    
                   F             
           F  F        Fe        
               Fe                
                                 
             FeF FO   F          
                                 
       F          Fe             
            F      F             
                                 
                                 
                                 
                                 
                                 

Positions:
   0 Fe     1.416738    1.189211    7.926783    ( 0.0000,  0.0000,  0.0000)
   1 Fe     1.456711    3.596231    2.479293    ( 0.0000,  0.0000,  0.0000)
   2 Fe     2.953178    1.172318    5.021961    ( 0.0000,  0.0000,  0.0000)
   3 Fe     2.953178    3.613124   10.463944    ( 0.0000,  0.0000,  0.0000)
   4 Fe     4.323386    1.106753    2.287094    ( 0.0000,  0.0000,  0.0000)
   5 Fe     4.323386    3.698132    7.729077    ( 0.0000,  0.0000,  0.0000)
   6 Fe     5.681193    1.156833   10.063461    ( 0.0000,  0.0000,  0.0000)
   7 Fe     5.681193    3.630370    4.621478    ( 0.0000,  0.0000,  0.0000)
   8 O      4.434559    0.279843    3.930385    ( 0.0000,  0.0000,  0.0000)
   9 O      4.465826    4.505599    9.368060    ( 0.0000,  0.0000,  0.0000)
  10 F      0.078582    0.275431    1.978610    ( 0.0000,  0.0000,  0.0000)
  11 F      0.078582    4.483308    7.420593    ( 0.0000,  0.0000,  0.0000)
  12 F      1.274802    2.150774    5.958600    ( 0.0000,  0.0000,  0.0000)
  13 F      1.252713    2.634668    0.598036    ( 0.0000,  0.0000,  0.0000)
  14 F      1.601658    0.247632    9.859146    ( 0.0000,  0.0000,  0.0000)
  15 F      1.601658    4.537810    4.372768    ( 0.0000,  0.0000,  0.0000)
  16 F      2.763996    2.170342    3.056782    ( 0.0000,  0.0000,  0.0000)
  17 F      2.763136    2.615100    8.498883    ( 0.0000,  0.0000,  0.0000)
  18 F      2.997224    0.170362    6.924657    ( 0.0000,  0.0000,  0.0000)
  19 F      2.997224    4.615080    1.482674    ( 0.0000,  0.0000,  0.0000)
  20 F      4.168315    2.120047    0.417174    ( 0.0000,  0.0000,  0.0000)
  21 F      4.143358    2.665395    5.862595    ( 0.0000,  0.0000,  0.0000)
  22 F      5.583533    2.184578    8.151270    ( 0.0000,  0.0000,  0.0000)
  23 F      5.555777    2.600864    2.775705    ( 0.0000,  0.0000,  0.0000)

Unit cell:
           periodic     x           y           z      points  spacing
  1. axis:    yes    5.735919    0.000000   -0.790267    28     0.2049
  2. axis:    yes    0.000000    4.785442    0.000000    24     0.1994
  3. axis:    yes    0.000000    0.000000   10.883966    52     0.2073

  Lengths:   5.790103   4.785442  10.883966
  Angles:   90.000000  97.844547  90.000000

Effective grid spacing dv^(1/3) = 0.2045

                     log10-error:    total        iterations:
           time      wfs    density  energy       fermi  poisson
iter:   1  20:41:42  +1.56   +inf  -150.067220    3      17     
iter:   2  20:41:45  +0.21   +inf  -150.711552    3             
iter:   3  20:41:48  -0.39   +inf  -150.896455    2             
iter:   4  20:41:52  -0.63  -1.14  -149.141719    3      8      
iter:   5  20:41:57  -0.38  -1.18  -157.623912    4      13     
iter:   6  20:42:02  -0.31  -1.18  -147.607082    3      14     
iter:   7  20:42:08  -0.67  -1.36  -146.093117    3      12     
iter:   8  20:42:14  -1.44  -1.42  -145.836048    3      11     
iter:   9  20:42:20  -1.59  -1.44  -145.850760    4      11     
iter:  10  20:42:27  -1.66  -1.43  -146.310696    4      13     
iter:  11  20:42:32  -1.42  -1.42  -146.210688    3      13     
iter:  12  20:42:39  -1.42  -1.44  -145.990177    4      10     
iter:  13  20:42:45  -1.65  -1.45  -145.695966    3      12     
iter:  14  20:42:50  -1.43  -1.49  -145.365204    4      11     
iter:  15  20:42:56  -1.39  -1.60  -146.185484    4      10     
iter:  16  20:43:03  -1.24  -1.63  -146.279457    4      12     
iter:  17  20:43:08  -1.46  -1.65  -145.668459    4      13     
iter:  18  20:43:15  -1.57  -1.85  -145.895054    3      12     
iter:  19  20:43:21  -1.56  -1.90  -145.521240    3      11     
iter:  20  20:43:27  -1.98  -2.10  -145.547954    3      10     
iter:  21  20:43:33  -2.23  -2.10  -145.471294    3      9      
iter:  22  20:43:38  -2.50  -2.15  -145.473894    3      8      
iter:  23  20:43:44  -2.57  -2.19  -145.490708    3      10     
iter:  24  20:43:51  -2.70  -2.14  -145.428376    3      10     
iter:  25  20:43:58  -2.41  -2.26  -145.471836    3      10     
iter:  26  20:44:05  -2.55  -2.22  -145.457126    3      10     
iter:  27  20:44:11  -2.50  -2.25  -145.455399    3      9      
iter:  28  20:44:19  -2.43  -2.29  -145.432075    3      9      
iter:  29  20:44:26  -2.35  -2.31  -145.499476    3      10     
iter:  30  20:44:33  -2.37  -2.23  -145.424872    3      11     
iter:  31  20:44:40  -2.82  -2.38  -145.420482    3      9      
iter:  32  20:44:45  -3.08  -2.43  -145.394329    3      9      
iter:  33  20:44:51  -3.34  -2.50  -145.388269    3      7      
iter:  34  20:44:56  -3.32  -2.56  -145.400061    3      6      
iter:  35  20:45:02  -3.24  -2.58  -145.394422    3      7      
iter:  36  20:45:09  -2.79  -2.57  -145.474597    3      10     
iter:  37  20:45:14  -2.70  -2.28  -145.394414    3      10     
iter:  38  20:45:20  -3.15  -2.61  -145.402010    3      9      
iter:  39  20:45:26  -3.38  -2.60  -145.389690    3      7      
iter:  40  20:45:31  -3.91  -2.75  -145.380582    3      4      
iter:  41  20:45:36  -4.70  -2.82  -145.381203    2      4      
iter:  42  20:45:42  -3.67  -2.85  -145.385870    3      6      
iter:  43  20:45:47  -3.57  -2.85  -145.383946    3      7      
iter:  44  20:45:53  -3.59  -2.91  -145.390329    2      8      
iter:  45  20:45:59  -3.65  -2.73  -145.379323    2      7      
iter:  46  20:46:05  -4.00  -3.16  -145.385773    2      4      
iter:  47  20:46:11  -4.24  -3.14  -145.379723    2      4      
iter:  48  20:46:16  -5.03  -3.31  -145.379491    2      3      
iter:  49  20:46:23  -4.91  -3.36  -145.380531    2      4      
iter:  50  20:46:28  -4.57  -3.32  -145.381353    2      5      
iter:  51  20:46:33  -4.51  -3.58  -145.380100    2      4      
iter:  52  20:46:40  -4.75  -3.48  -145.379132    2      4      
iter:  53  20:46:46  -4.89  -3.53  -145.380447    2      4      
iter:  54  20:46:52  -5.06  -3.88  -145.380616    2      4      
iter:  55  20:46:57  -5.52  -3.79  -145.380088    2      3      
iter:  56  20:47:02  -5.85  -4.01  -145.380067    2      3      
iter:  57  20:47:08  -5.94  -4.11  -145.380212    2      2      
iter:  58  20:47:14  -6.03  -4.10  -145.380276    2      3      
iter:  59  20:47:20  -6.16  -4.10  -145.379854    2      2      
iter:  60  20:47:26  -6.01  -4.21  -145.380099    2      3      
iter:  61  20:47:32  -5.99  -4.18  -145.380473    2      3      
iter:  62  20:47:38  -6.27  -4.18  -145.380450    2      2      
iter:  63  20:47:44  -6.64  -4.35  -145.380138    2      2      
iter:  64  20:47:51  -6.86  -4.35  -145.380235    2      2      
iter:  65  20:47:57  -7.03  -4.43  -145.380529    2      1      
iter:  66  20:48:03  -7.24  -4.47  -145.380307    2      2      
iter:  67  20:48:09  -6.71  -4.49  -145.380309    2      3      
iter:  68  20:48:14  -6.49  -4.65  -145.380436    2      2      
iter:  69  20:48:20  -6.60  -4.48  -145.380334    2      3      
iter:  70  20:48:26  -6.67  -4.89  -145.380645    2      1      
iter:  71  20:48:30  -7.10  -4.89  -145.380518    2      1      
iter:  72  20:48:37  -7.06  -4.96  -145.380543    2      1      
iter:  73  20:48:43  -7.30  -5.04  -145.380576    2      1      
iter:  74  20:48:49  -7.24  -5.08  -145.381235    2      1      
iter:  75  20:48:54  -7.45  -5.12  -145.380338    2      1      

Converged after 75 iterations.

Dipole moment: (-0.557503, 2.822215, -1.804874) |e|*Ang

Energy contributions relative to reference atoms: (reference = -319034.472395)

Kinetic:       +118.908315
Potential:     -132.750956
External:        +0.000000
XC:            -138.562356
Entropy (-ST):   -1.207446
Local:           +7.628382
--------------------------
Free energy:   -145.984061
Extrapolated:  -145.380338

Fermi level: 3.68530

 Band  Eigenvalues  Occupancy
    0    -20.68328    2.00000
    1    -20.60465    2.00000
    2    -20.37806    2.00000
    3    -20.34225    2.00000
    4    -20.30473    2.00000
    5    -20.27351    2.00000
    6    -20.18757    2.00000
    7    -20.16430    2.00000
    8    -20.14311    2.00000
    9    -20.12355    2.00000
   10    -19.96461    2.00000
   11    -19.93496    2.00000
   12    -19.85878    2.00000
   13    -19.82251    2.00000
   14    -14.60817    2.00000
   15    -14.56318    2.00000
   16     -4.19095    2.00000
   17     -3.83029    2.00000
   18     -3.44726    2.00000
   19     -3.29233    2.00000
   20     -3.26031    2.00000
   21     -3.08414    2.00000
   22     -3.04041    2.00000
   23     -2.98886    2.00000
   24     -2.94565    2.00000
   25     -2.90651    2.00000
   26     -2.78069    2.00000
   27     -2.65601    2.00000
   28     -2.61759    2.00000
   29     -2.58307    2.00000
   30     -2.48755    2.00000
   31     -2.45625    2.00000
   32     -2.39557    2.00000
   33     -2.37268    2.00000
   34     -2.33948    2.00000
   35     -2.28152    2.00000
   36     -2.27146    2.00000
   37     -2.20742    2.00000
   38     -2.10947    2.00000
   39     -2.08317    2.00000
   40     -2.04895    2.00000
   41     -2.00138    2.00000
   42     -1.95061    2.00000
   43     -1.94252    2.00000
   44     -1.77296    2.00000
   45     -1.70727    2.00000
   46     -1.48641    2.00000
   47     -1.44857    2.00000
   48     -1.38123    2.00000
   49     -1.29025    2.00000
   50     -1.14749    2.00000
   51     -1.11645    2.00000
   52     -1.06203    2.00000
   53     -1.01150    2.00000
   54     -0.88167    2.00000
   55     -0.79272    2.00000
   56     -0.75241    2.00000
   57     -0.72241    2.00000
   58     -0.56691    2.00000
   59     -0.48623    2.00000
   60     -0.41895    2.00000
   61     -0.34712    2.00000
   62      0.41515    2.00000
   63      0.47956    2.00000
   64      2.91460    1.99910
   65      2.93263    1.99892
   66      2.99153    1.99806
   67      3.00077    1.99787
   68      3.01964    1.99743
   69      3.03624    1.99697
   70      3.06210    1.99608
   71      3.10582    1.99393
   72      3.13803    1.99164
   73      3.15293    1.99030
   74      3.20858    1.98314
   75      3.22462    1.98023
   76      3.26418    1.97078
   77      3.27608    1.96715
   78      3.30080    1.95812
   79      3.36216    1.92400
   80      3.38240    1.90774
   81      3.38749    1.90315
   82      3.43353    1.85076
   83      3.47389    1.78454
   84      3.55769    1.56359
   85      3.58322    1.47029
   86      3.61297    1.34668
   87      3.70966    0.87880
   88      3.72303    0.81359
   89      3.84718    0.33076
   90      3.94307    0.14118
   91      3.95742    0.12347
   92      4.02705    0.06351
   93      4.08272    0.03690
   94      4.12572    0.02416
   95      4.17917    0.01423
   96      4.35890    0.00237
   97      4.50514    0.00055
   98      4.86816    0.00001
   99      4.93509    0.00001
  100      4.98047    0.00000
  101      5.03912    0.00000
  102      5.10579    0.00000
  103      5.30379    0.00000
  104      6.20650    0.00000
  105      8.02784    0.00000
  106      8.40071    0.00000
  107     11.00847    0.00000
  108     11.32767    0.00000
  109     11.42028    0.00000
  110     11.47114    0.00000
  111     11.75965    0.00000
  112     11.94488    0.00000
  113     12.03181    0.00000
  114     12.11668    0.00000
  115     12.83045    0.00000
  116     13.21251    0.00000
  117     13.24923    0.00000
  118     13.52983    0.00000
  119     13.84326    0.00000
  120     14.57085    0.00000
  121     14.99420    0.00000
  122     15.02073    0.00000
  123     15.10575    0.00000
  124     15.30156    0.00000
  125     15.75907    0.00000
  126     15.79771    0.00000
  127     15.85131    0.00000
  128     15.88479    0.00000
  129     15.96679    0.00000
  130     16.04428    0.00000
  131     16.17168    0.00000
  132     16.22805    0.00000
  133     16.35101    0.00000
  134     16.37450    0.00000
  135     16.47570    0.00000

Timing:                              incl.     excl.
-----------------------------------------------------------
Hamiltonian:                         2.096     0.000   0.0% |
 Atomic:                             1.244     0.003   0.0% |
  XC Correction:                     1.242     1.242   0.3% |
 Calculate atomic Hamiltonians:      0.013     0.013   0.0% |
 Communicate:                        0.000     0.000   0.0% |
 Hartree integrate/restrict:         0.006     0.006   0.0% |
 Initialize Hamiltonian:             0.000     0.000   0.0% |
 Poisson:                            0.618     0.618   0.1% |
 XC 3D grid:                         0.213     0.213   0.0% |
 vbar:                               0.002     0.002   0.0% |
LCAO initialization:                 7.522     0.332   0.1% |
 LCAO eigensolver:                   1.016     0.000   0.0% |
  Calculate projections:             0.003     0.003   0.0% |
  DenseAtomicCorrection:             0.003     0.003   0.0% |
  Distribute overlap matrix:         0.000     0.000   0.0% |
  Orbital Layouts:                   0.009     0.009   0.0% |
  Potential matrix:                  1.001     1.001   0.2% |
 LCAO to grid:                       5.388     5.388   1.2% |
 Set positions (LCAO WFS):           0.786     0.000   0.0% |
  Basic WFS set positions:           0.001     0.001   0.0% |
  Basis functions set positions:     0.000     0.000   0.0% |
  TCI: Calculate S, T, P:            0.785     0.785   0.2% |
SCF-cycle:                         436.800     0.067   0.0% |
 Davidson:                         294.115    96.839  21.7% |--------|
  Apply hamiltonian:                 9.876     9.876   2.2% ||
  Subspace diag:                    68.668     0.014   0.0% |
   calc_h_matrix:                   29.007    19.409   4.3% |-|
    Apply hamiltonian:               9.598     9.598   2.1% ||
   diagonalize:                      0.415     0.415   0.1% |
   rotate_psi:                      39.233    39.233   8.8% |---|
  calc. matrices:                   78.557    68.784  15.4% |-----|
   Apply hamiltonian:                9.773     9.773   2.2% ||
  diagonalize:                       1.528     1.528   0.3% |
  rotate_psi:                       38.647    38.647   8.6% |--|
 Density:                            3.045     0.002   0.0% |
  Atomic density matrices:           0.223     0.223   0.0% |
  Mix:                               1.981     1.981   0.4% |
  Multipole moments:                 0.066     0.066   0.0% |
  Pseudo density:                    0.774     0.773   0.2% |
   Symmetrize density:               0.002     0.002   0.0% |
 Hamiltonian:                      138.594     0.010   0.0% |
  Atomic:                           93.493     0.204   0.0% |
   XC Correction:                   93.289    93.289  20.9% |-------|
  Calculate atomic Hamiltonians:     1.268     1.268   0.3% |
  Communicate:                       0.001     0.001   0.0% |
  Hartree integrate/restrict:        0.578     0.578   0.1% |
  Poisson:                          23.655    23.655   5.3% |-|
  XC 3D grid:                       19.337    19.337   4.3% |-|
  vbar:                              0.251     0.251   0.1% |
 Orthonormalize:                     0.979     0.000   0.0% |
  calc_s_matrix:                     0.146     0.146   0.0% |
  inverse-cholesky:                  0.001     0.001   0.0% |
  projections:                       0.527     0.527   0.1% |
  rotate_psi_s:                      0.305     0.305   0.1% |
Set symmetry:                        0.001     0.001   0.0% |
Other:                               0.834     0.834   0.2% |
-----------------------------------------------------------
Total:                                       447.254 100.0%

Memory usage: 357.29 MiB
Date: Tue Mar 26 20:48:54 2019
