
  ___ ___ ___ _ _ _  
 |   |   |_  | | | | 
 | | | | | . | | | | 
 |__ |  _|___|_____|  1.4.0
 |___|_|             

User:   murakami@tssm1.eng.shizuoka.ac.jp
Date:   Tue Mar 26 18:02:29 2019
Arch:   x86_64
Pid:    31289
Python: 3.6.5
gpaw:   /home/murakami/.local/lib/python3.6/site-packages/gpaw
_gpaw:  /home/murakami/.local/lib/python3.6/site-packages/
        _gpaw.cpython-36m-x86_64-linux-gnu.so
ase:    /home/murakami/.local/lib/python3.6/site-packages/ase (version 3.16.2)
numpy:  /home/murakami/.local/lib/python3.6/site-packages/numpy (version 1.15.2)
scipy:  /home/murakami/.local/lib/python3.6/site-packages/scipy (version 1.1.0)
units:  Angstrom and eV
cores:  1

Input parameters:
  kpts: {size: (1, 1, 1)}
  maxiter: 300
  xc: PBE

System changes: positions, numbers, cell, pbc, initial_charges, initial_magmoms 

Initialize ...

Fe-setup:
  name: Iron
  id: 37abbd8d6c3c35915a9b583b742da910
  Z: 26
  valence: 8
  core: 18
  charge: 0.0
  file: /home/murakami/Public/gpaw-setups-0.9.20000/Fe.PBE.gz
  cutoffs: 1.06(comp), 2.06(filt), 2.67(core), lmax=2
  valence states:
                energy  radius
    4s(2.00)    -5.291   1.164
    4p(0.00)    -1.326   1.058
    3d(6.00)    -7.505   1.058
    *s          21.920   1.164
    *p          25.885   1.058
    *d          19.706   1.058

  Using partial waves for Fe as LCAO basis

O-setup:
  name: Oxygen
  id: 32ecd46bf208036f09c70b0ec9a88b78
  Z: 8
  valence: 6
  core: 2
  charge: 0.0
  file: /home/murakami/Public/gpaw-setups-0.9.20000/O.PBE.gz
  cutoffs: 0.67(comp), 1.17(filt), 0.83(core), lmax=2
  valence states:
                energy  radius
    2s(2.00)   -23.961   0.688
    2p(4.00)    -9.029   0.598
    *s           3.251   0.688
    *p          18.182   0.598
    *d           0.000   0.619

  Using partial waves for O as LCAO basis

F-setup:
  name: Fluorine
  id: 9cd46ba2a61e170ad72278be75b55cc0
  Z: 9
  valence: 7
  core: 2
  charge: 0.0
  file: /home/murakami/Public/gpaw-setups-0.9.20000/F.PBE.gz
  cutoffs: 0.64(comp), 1.14(filt), 0.74(core), lmax=2
  valence states:
                energy  radius
    2s(2.00)   -29.898   0.635
    2p(5.00)   -11.110   0.635
    *s          -2.687   0.635
    *p          16.102   0.635
    *d           0.000   0.635

  Using partial waves for F as LCAO basis

Reference energy: -319034.472395

Spin-paired calculation

Occupation numbers:
  Fermi-Dirac: width=0.1000 eV

Convergence criteria:
  Maximum total energy change: 0.0005 eV / electron
  Maximum integral of absolute density change: 0.0001 electrons
  Maximum integral of absolute eigenstate change: 4e-08 eV^2
  Maximum number of iterations: 300

Symmetries present (total): 1

  ( 1  0  0)
  ( 0  1  0)
  ( 0  0  1)

1 k-point (Gamma)
1 k-point in the irreducible part of the Brillouin zone
       k-points in crystal coordinates                weights
   0:     0.00000000    0.00000000    0.00000000          1/1

Wave functions: Uniform real-space grid
  Kinetic energy operator: 8*3+1=25 point O(h^6) finite-difference Laplacian
  ScaLapack parameters: grid=1x1, blocksize=None 

Eigensolver
   Davidson(niter=1, smin=None, normalize=True) 

Densities:
  Coarse grid: 28*24*52 grid
  Fine grid: 56*48*104 grid
  Total Charge: 0.000000 

Density mixing:
  Method: separate
  Backend: pulay
  Linear mixing parameter: 0.05
  Mixing with 5 old densities
  Damping of long wave oscillations: 50 

Hamiltonian:
  XC and Coulomb potentials evaluated on a 56*48*104 grid
  Using the PBE Exchange-Correlation functional
  Interpolation: tri-quintic (5. degree polynomial)
  Poisson solver: Jacobi solver with 4 multi-grid levels
    Coarsest grid: 7 x 6 x 13 points
    Stencil: 8*3+1=25 point O(h^6) finite-difference Laplacian
    Max iterations: 1000
    Tolerance: 2.000000e-10 

Memory estimate:
  Process memory now: 310.18 MiB
  Calculator: 140.54 MiB
    Density: 46.56 MiB
      Arrays: 6.93 MiB
      Localized functions: 36.96 MiB
      Mixer: 2.67 MiB
    Hamiltonian: 12.50 MiB
      Arrays: 4.53 MiB
      XC: 0.00 MiB
      Poisson: 5.17 MiB
      vbar: 2.80 MiB
    Wavefunctions: 81.48 MiB
      Arrays psit_nG: 36.26 MiB
      Eigensolver: 39.01 MiB
      Projections: 0.37 MiB
      Projectors: 5.85 MiB

Total number of cores used: 1

Number of atoms: 24
Number of atomic orbitals: 136
Number of bands in calculation: 136
Bands to converge: occupied states only
Number of valence electrons: 174

... initialized

Initializing position-dependent things.

Density initialized from atomic densities
Creating initial wave functions:
  136 bands from LCAO basis set

                                 
                                 
                                 
                                 
                Fe               
                     O           
                      Fe         
          FF   F                 
                    FeF          
           Fe                    
           F       F             
              F        Fe        
               Fe                
                                 
             FeF  O   F          
                 F               
       F          Fe             
            F     F              
                                 
                                 
                                 
                                 
                                 

Positions:
   0 Fe     1.414133    1.189211    7.926783    ( 0.0000,  0.0000,  0.0000)
   1 Fe     1.414133    3.596231    2.484800    ( 0.0000,  0.0000,  0.0000)
   2 Fe     2.947748    1.149813    5.021961    ( 0.0000,  0.0000,  0.0000)
   3 Fe     2.900777    3.613124   10.576372    ( 0.0000,  0.0000,  0.0000)
   4 Fe     4.290142    1.106753    2.290585    ( 0.0000,  0.0000,  0.0000)
   5 Fe     4.315437    3.678689    7.761740    ( 0.0000,  0.0000,  0.0000)
   6 Fe     5.670747    1.155072   10.063461    ( 0.0000,  0.0000,  0.0000)
   7 Fe     5.670747    3.630370    4.558416    ( 0.0000,  0.0000,  0.0000)
   8 O      4.457615    0.279843    3.926077    ( 0.0000,  0.0000,  0.0000)
   9 O      4.512069    4.505599    9.351172    ( 0.0000,  0.0000,  0.0000)
  10 F      0.078438    0.275431    1.978610    ( 0.0000,  0.0000,  0.0000)
  11 F      0.078438    4.510011    7.420593    ( 0.0000,  0.0000,  0.0000)
  12 F      1.272458    2.150774    6.036975    ( 0.0000,  0.0000,  0.0000)
  13 F      1.222327    2.634668    0.601912    ( 0.0000,  0.0000,  0.0000)
  14 F      1.604009    0.247632    9.712211    ( 0.0000,  0.0000,  0.0000)
  15 F      1.598713    4.537810    4.372768    ( 0.0000,  0.0000,  0.0000)
  16 F      2.758914    2.170342    3.056782    ( 0.0000,  0.0000,  0.0000)
  17 F      2.733889    2.615100    8.603266    ( 0.0000,  0.0000,  0.0000)
  18 F      2.991714    0.170362    6.848981    ( 0.0000,  0.0000,  0.0000)
  19 F      2.991714    4.615080    1.482674    ( 0.0000,  0.0000,  0.0000)
  20 F      4.135740    2.120047    0.420612    ( 0.0000,  0.0000,  0.0000)
  21 F      4.135740    2.665395    5.862595    ( 0.0000,  0.0000,  0.0000)
  22 F      5.569803    2.184578    8.151748    ( 0.0000,  0.0000,  0.0000)
  23 F      5.573267    2.600864    2.709287    ( 0.0000,  0.0000,  0.0000)

Unit cell:
           periodic     x           y           z      points  spacing
  1. axis:    yes    5.725373    0.000000   -0.790267    28     0.2045
  2. axis:    yes    0.000000    4.785442    0.000000    24     0.1994
  3. axis:    yes    0.000000    0.000000   10.883966    52     0.2073

  Lengths:   5.779656   4.785442  10.883966
  Angles:   90.000000  97.858816  90.000000

Effective grid spacing dv^(1/3) = 0.2044

                     log10-error:    total        iterations:
           time      wfs    density  energy       fermi  poisson
iter:   1  18:02:46  +1.56   +inf  -149.924757    3      17     
iter:   2  18:02:51  +0.21   +inf  -150.574669    3             
iter:   3  18:02:55  -0.38   +inf  -150.761590    2             
iter:   4  18:03:00  -0.63  -1.14  -149.039080    3      8      
iter:   5  18:03:06  -0.41  -1.18  -159.152958    4      15     
iter:   6  18:03:12  -0.33  -1.18  -148.447570    3      15     
iter:   7  18:03:20  -0.61  -1.33  -146.146934    4      12     
iter:   8  18:03:27  -1.40  -1.42  -145.705432    3      12     
iter:   9  18:03:34  -1.47  -1.44  -145.778054    4      11     
iter:  10  18:03:40  -1.53  -1.42  -145.995390    3      12     
iter:  11  18:03:46  -1.49  -1.43  -145.918151    4      13     
iter:  12  18:03:52  -1.43  -1.45  -145.784631    4      11     
iter:  13  18:03:57  -1.60  -1.46  -145.568874    3      11     
iter:  14  18:04:03  -1.32  -1.49  -145.511959    4      11     
iter:  15  18:04:09  -1.05  -1.58  -146.569956    4      13     
iter:  16  18:04:16  -1.15  -1.50  -145.969083    4      13     
iter:  17  18:04:22  -1.40  -1.61  -146.246127    4      14     
iter:  18  18:04:28  -1.37  -1.61  -145.888319    3      13     
iter:  19  18:04:34  -1.35  -1.73  -147.880792    3      14     
iter:  20  18:04:38  -1.35  -1.56  -145.390779    4      14     
iter:  21  18:04:43  -1.99  -1.85  -145.293242    3      11     
iter:  22  18:04:49  -2.41  -1.86  -145.227938    3      9      
iter:  23  18:04:56  -2.74  -1.90  -145.268823    3      8      
iter:  24  18:05:01  -2.60  -1.91  -145.316053    3      10     
iter:  25  18:05:07  -2.09  -1.92  -145.746408    3      12     
iter:  26  18:05:12  -1.90  -1.81  -145.332865    3      12     
iter:  27  18:05:17  -1.99  -1.93  -145.502251    3      7      
iter:  28  18:05:23  -1.96  -1.96  -145.488797    3      11     
iter:  29  18:05:29  -2.04  -1.95  -145.411965    3      11     
iter:  30  18:05:36  -2.33  -1.95  -145.232864    3      11     
iter:  31  18:05:42  -2.84  -2.08  -145.218269    3      7      
iter:  32  18:05:48  -2.62  -2.14  -145.271739    3      7      
iter:  33  18:05:54  -2.63  -2.10  -145.332873    3      10     
iter:  34  18:05:59  -2.47  -2.08  -145.276702    2      10     
iter:  35  18:06:03  -2.36  -2.17  -145.340850    3      8      
iter:  36  18:06:08  -2.01  -2.23  -145.732524    3      13     
iter:  37  18:06:14  -2.12  -1.90  -145.243957    3      12     
iter:  38  18:06:19  -2.77  -2.41  -145.242818    3      7      
iter:  39  18:06:24  -3.04  -2.36  -145.211667    2      9      
iter:  40  18:06:30  -3.88  -2.49  -145.208897    2      5      
iter:  41  18:06:35  -3.58  -2.54  -145.228972    2      5      
iter:  42  18:06:41  -3.47  -2.52  -145.212739    3      5      
iter:  43  18:06:46  -3.20  -2.58  -145.232494    3      8      
iter:  44  18:06:53  -3.07  -2.51  -145.232477    3      8      
iter:  45  18:07:00  -2.94  -2.67  -145.303483    2      10     
iter:  46  18:07:05  -2.92  -2.31  -145.218720    3      9      
iter:  47  18:07:10  -3.48  -2.72  -145.208448    3      5      
iter:  48  18:07:16  -3.68  -2.83  -145.214713    2      4      
iter:  49  18:07:22  -4.42  -2.90  -145.213599    2      5      
iter:  50  18:07:30  -4.58  -2.93  -145.214254    2      5      
iter:  51  18:07:35  -4.23  -3.00  -145.213734    3      5      
iter:  52  18:07:43  -3.72  -2.98  -145.219992    2      7      
iter:  53  18:07:49  -3.77  -2.90  -145.216383    2      6      
iter:  54  18:07:55  -3.94  -3.30  -145.211198    2      4      
iter:  55  18:08:00  -3.95  -3.07  -145.215134    2      6      
iter:  56  18:08:05  -4.33  -3.03  -145.212621    2      5      
iter:  57  18:08:10  -5.09  -3.41  -145.212499    1      3      
iter:  58  18:08:17  -5.56  -3.52  -145.212708    2      3      
iter:  59  18:08:23  -5.71  -3.53  -145.212371    2      3      
iter:  60  18:08:29  -5.39  -3.55  -145.212738    2      4      
iter:  61  18:08:33  -5.04  -3.56  -145.213184    2      5      
iter:  62  18:08:38  -5.07  -3.61  -145.213296    2      4      
iter:  63  18:08:43  -5.05  -3.79  -145.213404    2      4      
iter:  64  18:08:49  -5.08  -3.51  -145.212585    2      3      
iter:  65  18:08:55  -5.56  -3.87  -145.213136    2      3      
iter:  66  18:09:01  -6.09  -4.04  -145.213122    2      2      
iter:  67  18:09:06  -6.68  -4.12  -145.213164    2      2      
iter:  68  18:09:11  -6.64  -4.14  -145.212881    2      2      
iter:  69  18:09:16  -6.25  -4.16  -145.213104    2      3      
iter:  70  18:09:21  -6.31  -4.13  -145.213088    2      2      
iter:  71  18:09:26  -6.63  -4.38  -145.212811    2      2      
iter:  72  18:09:31  -6.58  -4.51  -145.213102    2      2      
iter:  73  18:09:35  -6.69  -4.36  -145.212923    2      2      
iter:  74  18:09:39  -7.08  -4.61  -145.212964    2      2      
iter:  75  18:09:44  -7.32  -4.61  -145.212916    2      2      
iter:  76  18:09:48  -7.33  -4.72  -145.212917    2      2      
iter:  77  18:09:52  -7.59  -4.87  -145.212892    2      2      

Converged after 77 iterations.

Dipole moment: (-1.469879, 2.899175, -8.109448) |e|*Ang

Energy contributions relative to reference atoms: (reference = -319034.472395)

Kinetic:       +121.898696
Potential:     -135.009985
External:        +0.000000
XC:            -139.078875
Entropy (-ST):   -1.225731
Local:           +7.590137
--------------------------
Free energy:   -145.825757
Extrapolated:  -145.212892

Fermi level: 3.71291

 Band  Eigenvalues  Occupancy
    0    -20.81035    2.00000
    1    -20.54083    2.00000
    2    -20.49234    2.00000
    3    -20.35135    2.00000
    4    -20.27997    2.00000
    5    -20.26667    2.00000
    6    -20.21169    2.00000
    7    -20.18076    2.00000
    8    -20.10780    2.00000
    9    -20.07868    2.00000
   10    -19.98463    2.00000
   11    -19.90590    2.00000
   12    -19.84452    2.00000
   13    -19.61708    2.00000
   14    -14.64184    2.00000
   15    -14.51768    2.00000
   16     -4.23891    2.00000
   17     -3.78602    2.00000
   18     -3.48968    2.00000
   19     -3.34167    2.00000
   20     -3.26921    2.00000
   21     -3.17707    2.00000
   22     -3.06175    2.00000
   23     -2.96824    2.00000
   24     -2.87939    2.00000
   25     -2.81583    2.00000
   26     -2.71811    2.00000
   27     -2.68299    2.00000
   28     -2.61976    2.00000
   29     -2.60144    2.00000
   30     -2.58773    2.00000
   31     -2.53412    2.00000
   32     -2.44307    2.00000
   33     -2.35847    2.00000
   34     -2.33925    2.00000
   35     -2.29167    2.00000
   36     -2.23399    2.00000
   37     -2.20910    2.00000
   38     -2.10661    2.00000
   39     -2.04662    2.00000
   40     -2.03137    2.00000
   41     -2.01075    2.00000
   42     -1.89631    2.00000
   43     -1.85931    2.00000
   44     -1.80246    2.00000
   45     -1.61662    2.00000
   46     -1.51045    2.00000
   47     -1.44214    2.00000
   48     -1.41302    2.00000
   49     -1.29743    2.00000
   50     -1.23905    2.00000
   51     -1.08836    2.00000
   52     -1.02199    2.00000
   53     -0.95867    2.00000
   54     -0.84507    2.00000
   55     -0.77875    2.00000
   56     -0.69902    2.00000
   57     -0.67932    2.00000
   58     -0.59723    2.00000
   59     -0.48280    2.00000
   60     -0.30420    2.00000
   61     -0.20256    2.00000
   62      0.38783    2.00000
   63      0.45345    2.00000
   64      2.91597    1.99931
   65      2.94961    1.99903
   66      2.99773    1.99843
   67      3.00980    1.99823
   68      3.03348    1.99776
   69      3.05729    1.99716
   70      3.10723    1.99533
   71      3.13847    1.99362
   72      3.18097    1.99026
   73      3.18941    1.98940
   74      3.24707    1.98122
   75      3.28524    1.97260
   76      3.30774    1.96581
   77      3.31385    1.96369
   78      3.32630    1.95898
   79      3.37466    1.93430
   80      3.41103    1.90683
   81      3.43609    1.88186
   82      3.46772    1.84140
   83      3.51382    1.75967
   84      3.57628    1.59357
   85      3.61375    1.45880
   86      3.64458    1.32896
   87      3.73093    0.91015
   88      3.74617    0.83520
   89      3.87366    0.33386
   90      3.96454    0.14944
   91      3.97344    0.13760
   92      4.05765    0.06169
   93      4.12113    0.03318
   94      4.18074    0.01842
   95      4.21823    0.01270
   96      4.46836    0.00105
   97      4.55910    0.00042
   98      4.83124    0.00003
   99      4.91764    0.00001
  100      4.99482    0.00001
  101      5.02815    0.00000
  102      5.16582    0.00000
  103      5.31450    0.00000
  104      6.23123    0.00000
  105      8.02654    0.00000
  106      8.50696    0.00000
  107     10.99905    0.00000
  108     11.28120    0.00000
  109     11.44891    0.00000
  110     11.52360    0.00000
  111     11.77408    0.00000
  112     11.92175    0.00000
  113     12.07340    0.00000
  114     12.23970    0.00000
  115     12.91508    0.00000
  116     13.20500    0.00000
  117     13.23071    0.00000
  118     13.64054    0.00000
  119     13.82409    0.00000
  120     14.59835    0.00000
  121     14.98790    0.00000
  122     15.06141    0.00000
  123     15.14884    0.00000
  124     15.41585    0.00000
  125     15.76465    0.00000
  126     15.82947    0.00000
  127     15.89123    0.00000
  128     15.93594    0.00000
  129     16.02086    0.00000
  130     16.05060    0.00000
  131     16.13644    0.00000
  132     16.23729    0.00000
  133     16.32408    0.00000
  134     16.40695    0.00000
  135     16.56099    0.00000

Timing:                              incl.     excl.
-----------------------------------------------------------
Hamiltonian:                         2.177     0.000   0.0% |
 Atomic:                             1.129     0.003   0.0% |
  XC Correction:                     1.127     1.127   0.3% |
 Calculate atomic Hamiltonians:      0.014     0.014   0.0% |
 Communicate:                        0.000     0.000   0.0% |
 Hartree integrate/restrict:         0.008     0.008   0.0% |
 Initialize Hamiltonian:             0.000     0.000   0.0% |
 Poisson:                            0.785     0.785   0.2% |
 XC 3D grid:                         0.237     0.237   0.1% |
 vbar:                               0.003     0.003   0.0% |
LCAO initialization:                 7.462     0.262   0.1% |
 LCAO eigensolver:                   0.995     0.000   0.0% |
  Calculate projections:             0.003     0.003   0.0% |
  DenseAtomicCorrection:             0.003     0.003   0.0% |
  Distribute overlap matrix:         0.000     0.000   0.0% |
  Orbital Layouts:                   0.010     0.010   0.0% |
  Potential matrix:                  0.979     0.979   0.2% |
 LCAO to grid:                       5.488     5.488   1.2% |
 Set positions (LCAO WFS):           0.716     0.000   0.0% |
  Basic WFS set positions:           0.001     0.001   0.0% |
  Basis functions set positions:     0.000     0.000   0.0% |
  TCI: Calculate S, T, P:            0.715     0.715   0.2% |
SCF-cycle:                         432.679     0.084   0.0% |
 Davidson:                         282.100    83.399  18.8% |-------|
  Apply hamiltonian:                10.094    10.094   2.3% ||
  Subspace diag:                    69.749     0.013   0.0% |
   calc_h_matrix:                   29.797    19.766   4.5% |-|
    Apply hamiltonian:              10.031    10.031   2.3% ||
   diagonalize:                      0.389     0.389   0.1% |
   rotate_psi:                      39.549    39.549   8.9% |---|
  calc. matrices:                   78.342    68.431  15.4% |-----|
   Apply hamiltonian:                9.912     9.912   2.2% ||
  diagonalize:                       1.497     1.497   0.3% |
  rotate_psi:                       39.019    39.019   8.8% |---|
 Density:                            2.794     0.002   0.0% |
  Atomic density matrices:           0.214     0.214   0.0% |
  Mix:                               1.746     1.746   0.4% |
  Multipole moments:                 0.047     0.047   0.0% |
  Pseudo density:                    0.786     0.784   0.2% |
   Symmetrize density:               0.002     0.002   0.0% |
 Hamiltonian:                      146.473     0.011   0.0% |
  Atomic:                           97.454     0.222   0.1% |
   XC Correction:                   97.233    97.233  21.9% |--------|
  Calculate atomic Hamiltonians:     1.072     1.072   0.2% |
  Communicate:                       0.001     0.001   0.0% |
  Hartree integrate/restrict:        0.598     0.598   0.1% |
  Poisson:                          27.737    27.737   6.3% |--|
  XC 3D grid:                       19.412    19.412   4.4% |-|
  vbar:                              0.188     0.188   0.0% |
 Orthonormalize:                     1.227     0.000   0.0% |
  calc_s_matrix:                     0.200     0.200   0.0% |
  inverse-cholesky:                  0.001     0.001   0.0% |
  projections:                       0.596     0.596   0.1% |
  rotate_psi_s:                      0.429     0.429   0.1% |
Set symmetry:                        0.001     0.001   0.0% |
Other:                               0.957     0.957   0.2% |
-----------------------------------------------------------
Total:                                       443.276 100.0%

Memory usage: 315.07 MiB
Date: Tue Mar 26 18:09:52 2019
