
  ___ ___ ___ _ _ _  
 |   |   |_  | | | | 
 | | | | | . | | | | 
 |__ |  _|___|_____|  1.4.0
 |___|_|             

User:   murakami@tssm1.eng.shizuoka.ac.jp
Date:   Tue Mar 26 18:59:12 2019
Arch:   x86_64
Pid:    31289
Python: 3.6.5
gpaw:   /home/murakami/.local/lib/python3.6/site-packages/gpaw
_gpaw:  /home/murakami/.local/lib/python3.6/site-packages/
        _gpaw.cpython-36m-x86_64-linux-gnu.so
ase:    /home/murakami/.local/lib/python3.6/site-packages/ase (version 3.16.2)
numpy:  /home/murakami/.local/lib/python3.6/site-packages/numpy (version 1.15.2)
scipy:  /home/murakami/.local/lib/python3.6/site-packages/scipy (version 1.1.0)
units:  Angstrom and eV
cores:  1

Input parameters:
  kpts: {size: (1, 1, 1)}
  maxiter: 300
  xc: PBE

System changes: positions, numbers, cell, pbc, initial_charges, initial_magmoms 

Initialize ...

Fe-setup:
  name: Iron
  id: 37abbd8d6c3c35915a9b583b742da910
  Z: 26
  valence: 8
  core: 18
  charge: 0.0
  file: /home/murakami/Public/gpaw-setups-0.9.20000/Fe.PBE.gz
  cutoffs: 1.06(comp), 2.06(filt), 2.67(core), lmax=2
  valence states:
                energy  radius
    4s(2.00)    -5.291   1.164
    4p(0.00)    -1.326   1.058
    3d(6.00)    -7.505   1.058
    *s          21.920   1.164
    *p          25.885   1.058
    *d          19.706   1.058

  Using partial waves for Fe as LCAO basis

O-setup:
  name: Oxygen
  id: 32ecd46bf208036f09c70b0ec9a88b78
  Z: 8
  valence: 6
  core: 2
  charge: 0.0
  file: /home/murakami/Public/gpaw-setups-0.9.20000/O.PBE.gz
  cutoffs: 0.67(comp), 1.17(filt), 0.83(core), lmax=2
  valence states:
                energy  radius
    2s(2.00)   -23.961   0.688
    2p(4.00)    -9.029   0.598
    *s           3.251   0.688
    *p          18.182   0.598
    *d           0.000   0.619

  Using partial waves for O as LCAO basis

F-setup:
  name: Fluorine
  id: 9cd46ba2a61e170ad72278be75b55cc0
  Z: 9
  valence: 7
  core: 2
  charge: 0.0
  file: /home/murakami/Public/gpaw-setups-0.9.20000/F.PBE.gz
  cutoffs: 0.64(comp), 1.14(filt), 0.74(core), lmax=2
  valence states:
                energy  radius
    2s(2.00)   -29.898   0.635
    2p(5.00)   -11.110   0.635
    *s          -2.687   0.635
    *p          16.102   0.635
    *d           0.000   0.635

  Using partial waves for F as LCAO basis

Reference energy: -319034.472395

Spin-paired calculation

Occupation numbers:
  Fermi-Dirac: width=0.1000 eV

Convergence criteria:
  Maximum total energy change: 0.0005 eV / electron
  Maximum integral of absolute density change: 0.0001 electrons
  Maximum integral of absolute eigenstate change: 4e-08 eV^2
  Maximum number of iterations: 300

Symmetries present (total): 1

  ( 1  0  0)
  ( 0  1  0)
  ( 0  0  1)

1 k-point (Gamma)
1 k-point in the irreducible part of the Brillouin zone
       k-points in crystal coordinates                weights
   0:     0.00000000    0.00000000    0.00000000          1/1

Wave functions: Uniform real-space grid
  Kinetic energy operator: 12*3+1=37 point O(h^6) finite-difference Laplacian
  ScaLapack parameters: grid=1x1, blocksize=None 

Eigensolver
   Davidson(niter=1, smin=None, normalize=True) 

Densities:
  Coarse grid: 28*24*52 grid
  Fine grid: 56*48*104 grid
  Total Charge: 0.000000 

Density mixing:
  Method: separate
  Backend: pulay
  Linear mixing parameter: 0.05
  Mixing with 5 old densities
  Damping of long wave oscillations: 50 

Hamiltonian:
  XC and Coulomb potentials evaluated on a 56*48*104 grid
  Using the PBE Exchange-Correlation functional
  Interpolation: tri-quintic (5. degree polynomial)
  Poisson solver: Jacobi solver with 4 multi-grid levels
    Coarsest grid: 7 x 6 x 13 points
    Stencil: 12*3+1=37 point O(h^6) finite-difference Laplacian
    Max iterations: 1000
    Tolerance: 2.000000e-10 

Memory estimate:
  Process memory now: 337.94 MiB
  Calculator: 140.02 MiB
    Density: 46.14 MiB
      Arrays: 6.93 MiB
      Localized functions: 36.54 MiB
      Mixer: 2.67 MiB
    Hamiltonian: 12.47 MiB
      Arrays: 4.53 MiB
      XC: 0.00 MiB
      Poisson: 5.17 MiB
      vbar: 2.77 MiB
    Wavefunctions: 81.41 MiB
      Arrays psit_nG: 36.26 MiB
      Eigensolver: 39.01 MiB
      Projections: 0.37 MiB
      Projectors: 5.79 MiB

Total number of cores used: 1

Number of atoms: 24
Number of atomic orbitals: 136
Number of bands in calculation: 136
Bands to converge: occupied states only
Number of valence electrons: 174

... initialized

Initializing position-dependent things.

Density initialized from atomic densities
Creating initial wave functions:
  136 bands from LCAO basis set

                                 
                                 
                                 
                                 
                Fe               
                     O           
                      Fe         
          FF   F    Fe           
                      F          
           Fe                    
           F       F             
              F        Fe        
               Fe                
                                 
             FeF FO   F          
                                 
       F          Fe             
            F     F              
                                 
                                 
                                 
                                 
                                 

Positions:
   0 Fe     1.413415    1.245330    7.926783    ( 0.0000,  0.0000,  0.0000)
   1 Fe     1.407051    3.630888    2.484800    ( 0.0000,  0.0000,  0.0000)
   2 Fe     2.950020    1.183616    5.021961    ( 0.0000,  0.0000,  0.0000)
   3 Fe     2.943446    3.647944   10.463944    ( 0.0000,  0.0000,  0.0000)
   4 Fe     4.320405    1.117419    2.287094    ( 0.0000,  0.0000,  0.0000)
   5 Fe     4.313477    3.714141    7.729077    ( 0.0000,  0.0000,  0.0000)
   6 Fe     5.734597    1.166203   10.055674    ( 0.0000,  0.0000,  0.0000)
   7 Fe     5.671394    3.672778    4.621478    ( 0.0000,  0.0000,  0.0000)
   8 O      4.465072    0.282540    3.926077    ( 0.0000,  0.0000,  0.0000)
   9 O      4.432794    4.549020    9.408390    ( 0.0000,  0.0000,  0.0000)
  10 F      0.077840    0.278085    1.978610    ( 0.0000,  0.0000,  0.0000)
  11 F      0.066434    4.553475    7.420593    ( 0.0000,  0.0000,  0.0000)
  12 F      1.269009    2.171501    6.036975    ( 0.0000,  0.0000,  0.0000)
  13 F      1.267706    2.660059    0.594992    ( 0.0000,  0.0000,  0.0000)
  14 F      1.600991    0.250019    9.814751    ( 0.0000,  0.0000,  0.0000)
  15 F      1.589435    4.581541    4.372768    ( 0.0000,  0.0000,  0.0000)
  16 F      2.758150    2.191257    3.056782    ( 0.0000,  0.0000,  0.0000)
  17 F      2.703172    2.640303    8.506174    ( 0.0000,  0.0000,  0.0000)
  18 F      2.996765    0.172004    6.924657    ( 0.0000,  0.0000,  0.0000)
  19 F      2.984793    4.659556    1.482674    ( 0.0000,  0.0000,  0.0000)
  20 F      4.137648    2.140478    0.420612    ( 0.0000,  0.0000,  0.0000)
  21 F      4.136179    2.691082    5.862595    ( 0.0000,  0.0000,  0.0000)
  22 F      5.577648    2.205631    8.151270    ( 0.0000,  0.0000,  0.0000)
  23 F      5.576527    2.625929    2.709287    ( 0.0000,  0.0000,  0.0000)

Unit cell:
           periodic     x           y           z      points  spacing
  1. axis:    yes    5.735919    0.000000   -0.790267    28     0.2049
  2. axis:    yes   -0.012890    4.831560    0.000000    24     0.2013
  3. axis:    yes    0.000000    0.000000   10.883966    52     0.2073

  Lengths:   5.790103   4.831577  10.883966
  Angles:   90.000000  97.844547  90.151427

Effective grid spacing dv^(1/3) = 0.2051

                     log10-error:    total        iterations:
           time      wfs    density  energy       fermi  poisson
iter:   1  18:59:24  +1.55   +inf  -149.954064    3      17     
iter:   2  18:59:27  +0.20   +inf  -150.586018    3             
iter:   3  18:59:30  -0.40   +inf  -150.766814    2             
iter:   4  18:59:35  -0.64  -1.13  -148.995574    3      8      
iter:   5  18:59:40  -0.37  -1.18  -156.970318    3      11     
iter:   6  18:59:45  -0.32  -1.20  -146.509166    3      10     
iter:   7  18:59:50  -0.74  -1.40  -145.700145    3      10     
iter:   8  18:59:55  -1.50  -1.43  -145.732009    4      10     
iter:   9  19:00:00  -1.40  -1.43  -147.720463    4      13     
iter:  10  19:00:05  -1.20  -1.38  -145.637628    4      13     
iter:  11  19:00:10  -1.47  -1.46  -146.155162    4      12     
iter:  12  19:00:15  -1.46  -1.44  -145.609154    3      13     
iter:  13  19:00:20  -1.67  -1.49  -145.485478    4      11     
iter:  14  19:00:25  -1.41  -1.54  -146.901861    4      13     
iter:  15  19:00:30  -1.30  -1.48  -145.966750    4      13     
iter:  16  19:00:35  -1.17  -1.60  -149.330195    4      14     
iter:  17  19:00:40  -1.10  -1.44  -146.303906    4      14     
iter:  18  19:00:45  -1.37  -1.61  -146.021157    4      13     
iter:  19  19:00:50  -1.72  -1.62  -145.201938    3      12     
iter:  20  19:00:55  -2.49  -1.73  -145.193392    3      6      
iter:  21  19:01:00  -2.15  -1.75  -145.671413    3      11     
iter:  22  19:01:06  -1.90  -1.69  -145.802817    3      13     
iter:  23  19:01:11  -1.65  -1.69  -146.026103    3      12     
iter:  24  19:01:16  -1.70  -1.70  -145.423624    3      10     
iter:  25  19:01:21  -1.66  -1.94  -146.768718    3      13     
iter:  26  19:01:26  -1.57  -1.68  -145.370689    3      12     
iter:  27  19:01:31  -2.27  -1.96  -145.266121    3      10     
iter:  28  19:01:36  -2.96  -2.00  -145.235513    3      8      
iter:  29  19:01:41  -3.23  -2.05  -145.250963    3      8      
iter:  30  19:01:46  -2.83  -2.06  -145.276975    3      9      
iter:  31  19:01:51  -2.24  -2.07  -145.406267    3      11     
iter:  32  19:01:56  -2.10  -2.17  -145.383171    3      11     
iter:  33  19:02:02  -2.16  -2.16  -145.491674    3      11     
iter:  34  19:02:07  -2.27  -2.08  -145.369230    3      11     
iter:  35  19:02:12  -2.58  -2.18  -145.258060    3      10     
iter:  36  19:02:17  -3.08  -2.40  -145.229566    3      8      
iter:  37  19:02:21  -3.77  -2.55  -145.232385    3      5      
iter:  38  19:02:26  -3.63  -2.56  -145.234791    2      5      
iter:  39  19:02:31  -3.38  -2.57  -145.247094    2      6      
iter:  40  19:02:36  -3.05  -2.53  -145.287655    3      9      
iter:  41  19:02:41  -2.84  -2.38  -145.264081    2      10     
iter:  42  19:02:46  -2.99  -2.43  -145.246000    2      9      
iter:  43  19:02:51  -3.40  -2.57  -145.240783    2      7      
iter:  44  19:02:56  -3.70  -2.68  -145.232291    2      5      
iter:  45  19:03:00  -4.38  -2.74  -145.231447    2      4      
iter:  46  19:03:05  -4.34  -2.78  -145.234546    2      5      
iter:  47  19:03:10  -3.67  -2.80  -145.246972    2      8      
iter:  48  19:03:15  -3.24  -2.68  -145.253130    2      9      
iter:  49  19:03:20  -3.33  -2.61  -145.231376    2      8      
iter:  50  19:03:25  -3.64  -3.02  -145.236804    2      6      
iter:  51  19:03:30  -3.77  -2.99  -145.233292    2      5      
iter:  52  19:03:34  -4.38  -3.04  -145.230701    2      4      
iter:  53  19:03:39  -5.26  -3.26  -145.230442    2      3      
iter:  54  19:03:44  -5.09  -3.30  -145.230609    2      4      
iter:  55  19:03:48  -4.93  -3.31  -145.231289    2      4      
iter:  56  19:03:53  -4.62  -3.33  -145.230050    3      5      
iter:  57  19:03:58  -4.43  -3.42  -145.230496    2      4      
iter:  58  19:04:03  -4.49  -3.39  -145.232025    2      5      
iter:  59  19:04:08  -4.76  -3.31  -145.231084    2      4      
iter:  60  19:04:12  -5.11  -3.63  -145.230928    2      4      
iter:  61  19:04:17  -5.54  -3.70  -145.230669    2      3      
iter:  62  19:04:22  -6.23  -3.85  -145.230545    2      3      
iter:  63  19:04:26  -5.98  -3.85  -145.230598    2      3      
iter:  64  19:04:31  -5.76  -3.86  -145.230543    2      3      
iter:  65  19:04:36  -5.59  -3.84  -145.230348    2      4      
iter:  66  19:04:40  -5.59  -4.02  -145.230771    2      3      
iter:  67  19:04:45  -5.61  -3.94  -145.230729    2      4      
iter:  68  19:04:50  -5.99  -4.00  -145.230401    2      3      
iter:  69  19:04:54  -6.54  -4.34  -145.230557    2      2      
iter:  70  19:04:59  -6.67  -4.51  -145.230691    2      3      
iter:  71  19:05:04  -6.72  -4.47  -145.230915    2      2      
iter:  72  19:05:08  -7.42  -4.62  -145.230849    2      1      

Converged after 72 iterations.

Dipole moment: (-3.341005, 3.244782, -1.487447) |e|*Ang

Energy contributions relative to reference atoms: (reference = -319034.472395)

Kinetic:       +114.346884
Potential:     -129.276813
External:        +0.000000
XC:            -137.358037
Entropy (-ST):   -1.234315
Local:           +7.674275
--------------------------
Free energy:   -145.848007
Extrapolated:  -145.230849

Fermi level: 3.57062

 Band  Eigenvalues  Occupancy
    0    -20.72169    2.00000
    1    -20.63359    2.00000
    2    -20.43224    2.00000
    3    -20.36512    2.00000
    4    -20.34357    2.00000
    5    -20.31767    2.00000
    6    -20.27176    2.00000
    7    -20.25242    2.00000
    8    -20.21391    2.00000
    9    -20.19386    2.00000
   10    -20.12820    2.00000
   11    -20.04207    2.00000
   12    -19.90998    2.00000
   13    -19.79578    2.00000
   14    -14.64678    2.00000
   15    -14.53212    2.00000
   16     -4.23750    2.00000
   17     -3.88009    2.00000
   18     -3.49579    2.00000
   19     -3.33317    2.00000
   20     -3.31431    2.00000
   21     -3.14094    2.00000
   22     -3.08601    2.00000
   23     -3.02882    2.00000
   24     -3.01024    2.00000
   25     -2.94034    2.00000
   26     -2.82392    2.00000
   27     -2.68183    2.00000
   28     -2.68098    2.00000
   29     -2.65596    2.00000
   30     -2.54941    2.00000
   31     -2.50480    2.00000
   32     -2.46184    2.00000
   33     -2.45377    2.00000
   34     -2.39382    2.00000
   35     -2.34122    2.00000
   36     -2.31448    2.00000
   37     -2.29143    2.00000
   38     -2.16864    2.00000
   39     -2.14964    2.00000
   40     -2.11629    2.00000
   41     -2.06919    2.00000
   42     -2.05197    2.00000
   43     -2.01268    2.00000
   44     -1.80769    2.00000
   45     -1.71787    2.00000
   46     -1.55870    2.00000
   47     -1.48164    2.00000
   48     -1.43048    2.00000
   49     -1.35622    2.00000
   50     -1.17868    2.00000
   51     -1.15432    2.00000
   52     -1.10765    2.00000
   53     -1.06320    2.00000
   54     -0.94022    2.00000
   55     -0.88611    2.00000
   56     -0.80842    2.00000
   57     -0.76644    2.00000
   58     -0.62134    2.00000
   59     -0.54992    2.00000
   60     -0.48170    2.00000
   61     -0.40106    2.00000
   62      0.36450    2.00000
   63      0.46364    2.00000
   64      2.81338    1.99897
   65      2.82309    1.99887
   66      2.87784    1.99804
   67      2.89638    1.99764
   68      2.91783    1.99708
   69      2.93465    1.99655
   70      2.95537    1.99575
   71      2.99760    1.99353
   72      3.03721    1.99040
   73      3.05383    1.98867
   74      3.09177    1.98349
   75      3.11540    1.97913
   76      3.14935    1.97082
   77      3.17470    1.96256
   78      3.20093    1.95160
   79      3.25693    1.91678
   80      3.27923    1.89705
   81      3.28766    1.88851
   82      3.32036    1.84865
   83      3.35996    1.78309
   84      3.44697    1.54991
   85      3.46513    1.48344
   86      3.49682    1.35311
   87      3.59297    0.88871
   88      3.60652    0.82239
   89      3.73209    0.33188
   90      3.82584    0.14456
   91      3.83454    0.13331
   92      3.89829    0.07276
   93      3.95416    0.04227
   94      4.02714    0.02060
   95      4.04335    0.01754
   96      4.28103    0.00164
   97      4.37211    0.00066
   98      4.71943    0.00002
   99      4.83023    0.00001
  100      4.85284    0.00001
  101      4.88975    0.00000
  102      4.96304    0.00000
  103      5.14791    0.00000
  104      6.07454    0.00000
  105      7.85677    0.00000
  106      8.32512    0.00000
  107     10.82932    0.00000
  108     11.21240    0.00000
  109     11.22379    0.00000
  110     11.43397    0.00000
  111     11.58900    0.00000
  112     11.78249    0.00000
  113     11.88064    0.00000
  114     12.03005    0.00000
  115     12.73421    0.00000
  116     13.03887    0.00000
  117     13.07727    0.00000
  118     13.45066    0.00000
  119     13.68752    0.00000
  120     14.42324    0.00000
  121     14.78201    0.00000
  122     14.86463    0.00000
  123     14.92503    0.00000
  124     15.10036    0.00000
  125     15.56681    0.00000
  126     15.66422    0.00000
  127     15.67987    0.00000
  128     15.71478    0.00000
  129     15.79335    0.00000
  130     15.86332    0.00000
  131     15.99143    0.00000
  132     16.02956    0.00000
  133     16.07611    0.00000
  134     16.16181    0.00000
  135     16.27778    0.00000

Timing:                              incl.     excl.
-----------------------------------------------------------
Hamiltonian:                         2.157     0.000   0.0% |
 Atomic:                             1.069     0.002   0.0% |
  XC Correction:                     1.066     1.066   0.3% |
 Calculate atomic Hamiltonians:      0.012     0.012   0.0% |
 Communicate:                        0.000     0.000   0.0% |
 Hartree integrate/restrict:         0.007     0.007   0.0% |
 Initialize Hamiltonian:             0.000     0.000   0.0% |
 Poisson:                            0.851     0.851   0.2% |
 XC 3D grid:                         0.216     0.216   0.1% |
 vbar:                               0.002     0.002   0.0% |
LCAO initialization:                 5.975     0.229   0.1% |
 LCAO eigensolver:                   1.066     0.000   0.0% |
  Calculate projections:             0.003     0.003   0.0% |
  DenseAtomicCorrection:             0.003     0.003   0.0% |
  Distribute overlap matrix:         0.000     0.000   0.0% |
  Orbital Layouts:                   0.009     0.009   0.0% |
  Potential matrix:                  1.051     1.051   0.3% |
 LCAO to grid:                       4.057     4.057   1.1% |
 Set positions (LCAO WFS):           0.622     0.000   0.0% |
  Basic WFS set positions:           0.001     0.001   0.0% |
  Basis functions set positions:     0.000     0.000   0.0% |
  TCI: Calculate S, T, P:            0.622     0.622   0.2% |
SCF-cycle:                         347.697     0.050   0.0% |
 Davidson:                         224.916    60.026  16.8% |------|
  Apply hamiltonian:                10.769    10.769   3.0% ||
  Subspace diag:                    56.264     0.012   0.0% |
   calc_h_matrix:                   25.697    14.916   4.2% |-|
    Apply hamiltonian:              10.781    10.781   3.0% ||
   diagonalize:                      0.296     0.296   0.1% |
   rotate_psi:                      30.259    30.259   8.5% |--|
  calc. matrices:                   66.157    55.141  15.5% |-----|
   Apply hamiltonian:               11.016    11.016   3.1% ||
  diagonalize:                       1.224     1.224   0.3% |
  rotate_psi:                       30.475    30.475   8.5% |--|
 Density:                            2.195     0.002   0.0% |
  Atomic density matrices:           0.167     0.167   0.0% |
  Mix:                               1.434     1.434   0.4% |
  Multipole moments:                 0.041     0.041   0.0% |
  Pseudo density:                    0.552     0.550   0.2% |
   Symmetrize density:               0.001     0.001   0.0% |
 Hamiltonian:                      119.914     0.008   0.0% |
  Atomic:                           74.728     0.177   0.0% |
   XC Correction:                   74.551    74.551  20.9% |-------|
  Calculate atomic Hamiltonians:     0.884     0.884   0.2% |
  Communicate:                       0.001     0.001   0.0% |
  Hartree integrate/restrict:        0.432     0.432   0.1% |
  Poisson:                          28.289    28.289   7.9% |--|
  XC 3D grid:                       15.407    15.407   4.3% |-|
  vbar:                              0.165     0.165   0.0% |
 Orthonormalize:                     0.622     0.000   0.0% |
  calc_s_matrix:                     0.146     0.146   0.0% |
  inverse-cholesky:                  0.001     0.001   0.0% |
  projections:                       0.254     0.254   0.1% |
  rotate_psi_s:                      0.221     0.221   0.1% |
Set symmetry:                        0.001     0.001   0.0% |
Other:                               0.829     0.829   0.2% |
-----------------------------------------------------------
Total:                                       356.659 100.0%

Memory usage: 337.94 MiB
Date: Tue Mar 26 19:05:08 2019
