
  ___ ___ ___ _ _ _  
 |   |   |_  | | | | 
 | | | | | . | | | | 
 |__ |  _|___|_____|  1.4.0
 |___|_|             

User:   murakami@tssm1.eng.shizuoka.ac.jp
Date:   Fri Mar 29 05:10:54 2019
Arch:   x86_64
Pid:    31289
Python: 3.6.5
gpaw:   /home/murakami/.local/lib/python3.6/site-packages/gpaw
_gpaw:  /home/murakami/.local/lib/python3.6/site-packages/
        _gpaw.cpython-36m-x86_64-linux-gnu.so
ase:    /home/murakami/.local/lib/python3.6/site-packages/ase (version 3.16.2)
numpy:  /home/murakami/.local/lib/python3.6/site-packages/numpy (version 1.15.2)
scipy:  /home/murakami/.local/lib/python3.6/site-packages/scipy (version 1.1.0)
units:  Angstrom and eV
cores:  1

Input parameters:
  kpts: {size: (1, 1, 1)}
  maxiter: 300
  xc: PBE

System changes: positions, numbers, cell, pbc, initial_charges, initial_magmoms 

Initialize ...

Fe-setup:
  name: Iron
  id: 37abbd8d6c3c35915a9b583b742da910
  Z: 26
  valence: 8
  core: 18
  charge: 0.0
  file: /home/murakami/Public/gpaw-setups-0.9.20000/Fe.PBE.gz
  cutoffs: 1.06(comp), 2.06(filt), 2.67(core), lmax=2
  valence states:
                energy  radius
    4s(2.00)    -5.291   1.164
    4p(0.00)    -1.326   1.058
    3d(6.00)    -7.505   1.058
    *s          21.920   1.164
    *p          25.885   1.058
    *d          19.706   1.058

  Using partial waves for Fe as LCAO basis

O-setup:
  name: Oxygen
  id: 32ecd46bf208036f09c70b0ec9a88b78
  Z: 8
  valence: 6
  core: 2
  charge: 0.0
  file: /home/murakami/Public/gpaw-setups-0.9.20000/O.PBE.gz
  cutoffs: 0.67(comp), 1.17(filt), 0.83(core), lmax=2
  valence states:
                energy  radius
    2s(2.00)   -23.961   0.688
    2p(4.00)    -9.029   0.598
    *s           3.251   0.688
    *p          18.182   0.598
    *d           0.000   0.619

  Using partial waves for O as LCAO basis

F-setup:
  name: Fluorine
  id: 9cd46ba2a61e170ad72278be75b55cc0
  Z: 9
  valence: 7
  core: 2
  charge: 0.0
  file: /home/murakami/Public/gpaw-setups-0.9.20000/F.PBE.gz
  cutoffs: 0.64(comp), 1.14(filt), 0.74(core), lmax=2
  valence states:
                energy  radius
    2s(2.00)   -29.898   0.635
    2p(5.00)   -11.110   0.635
    *s          -2.687   0.635
    *p          16.102   0.635
    *d           0.000   0.635

  Using partial waves for F as LCAO basis

Reference energy: -648925.267931

Spin-paired calculation

Occupation numbers:
  Fermi-Dirac: width=0.1000 eV

Convergence criteria:
  Maximum total energy change: 0.0005 eV / electron
  Maximum integral of absolute density change: 0.0001 electrons
  Maximum integral of absolute eigenstate change: 4e-08 eV^2
  Maximum number of iterations: 300

Symmetries present (total): 1

  ( 1  0  0)
  ( 0  1  0)
  ( 0  0  1)

1 k-point (Gamma)
1 k-point in the irreducible part of the Brillouin zone
       k-points in crystal coordinates                weights
   0:     0.00000000    0.00000000    0.00000000          1/1

Wave functions: Uniform real-space grid
  Kinetic energy operator: 12*3+1=37 point O(h^6) finite-difference Laplacian
  ScaLapack parameters: grid=1x1, blocksize=None 

Eigensolver
   Davidson(niter=1, smin=None, normalize=True) 

Densities:
  Coarse grid: 48*28*76 grid
  Fine grid: 96*56*152 grid
  Total Charge: 0.000000 

Density mixing:
  Method: separate
  Backend: pulay
  Linear mixing parameter: 0.05
  Mixing with 5 old densities
  Damping of long wave oscillations: 50 

Hamiltonian:
  XC and Coulomb potentials evaluated on a 96*56*152 grid
  Using the PBE Exchange-Correlation functional
  Interpolation: tri-quintic (5. degree polynomial)
  Poisson solver: Jacobi solver with 4 multi-grid levels
    Coarsest grid: 12 x 7 x 19 points
    Stencil: 12*3+1=37 point O(h^6) finite-difference Laplacian
    Max iterations: 1000
    Tolerance: 2.000000e-10 

Memory estimate:
  Process memory now: 1099.94 MiB
  Calculator: 625.21 MiB
    Density: 115.65 MiB
      Arrays: 20.26 MiB
      Localized functions: 87.59 MiB
      Mixer: 7.79 MiB
    Hamiltonian: 34.99 MiB
      Arrays: 13.25 MiB
      XC: 0.00 MiB
      Poisson: 15.10 MiB
      vbar: 6.65 MiB
    Wavefunctions: 474.56 MiB
      Arrays psit_nG: 224.44 MiB
      Eigensolver: 234.67 MiB
      Projections: 1.66 MiB
      Projectors: 13.80 MiB

Total number of cores used: 1

Number of atoms: 52
Number of atomic orbitals: 288
Number of bands in calculation: 288
Bands to converge: occupied states only
Number of valence electrons: 376

... initialized

Initializing position-dependent things.

Density initialized from atomic densities
Creating initial wave functions:
  288 bands from LCAO basis set

                                           
                                           
                                           
                                           
                          Fe               
              F       F      O             
             Fe                            
               O        F      F           
                            Fe             
         F       F        F                
               Fe                          
            FFe    F  F    F F             
                       Fe                  
         F     F        F                  
             Fe  O          Fe             
               Fe Fe     F       F         
            F          Fe  O               
                   F  F     Fe             
              F           Fe               
        F      F        F                  
             Fe                            
          F     F Fe     F                 
            F                              
                    F     F Fe             
                                           
                                           
                                           
                                           
                                           

Positions:
   0 Fe     1.551418    2.603099    2.677597    ( 0.0000,  0.0000,  0.0000)
   1 Fe     1.551418    2.774860   10.155423    ( 0.0000,  0.0000,  0.0000)
   2 Fe     6.278121    5.311002    2.635533    ( 0.0000,  0.0000,  0.0000)
   3 Fe     6.278121    0.131340   10.113358    ( 0.0000,  0.0000,  0.0000)
   4 Fe     1.657485    2.544113   14.390832    ( 0.0000,  0.0000,  0.0000)
   5 Fe     1.657485    2.835110    7.059751    ( 0.0000,  0.0000,  0.0000)
   6 Fe     6.384188    5.252016   14.460247    ( 0.0000,  0.0000,  0.0000)
   7 Fe     6.384188    0.183546    7.076956    ( 0.0000,  0.0000,  0.0000)
   8 Fe     3.135024    0.176327   12.271643    ( 0.0000,  0.0000,  0.0000)
   9 Fe     3.135024    5.220507    4.793817    ( 0.0000,  0.0000,  0.0000)
  10 Fe     7.861727    2.884230   12.229578    ( 0.0000,  0.0000,  0.0000)
  11 Fe     7.861727    2.568943    4.751753    ( 0.0000,  0.0000,  0.0000)
  12 Fe     3.153836    0.041949    7.705724    ( 0.0000,  0.0000,  0.0000)
  13 Fe     3.153836    5.355110    0.212525    ( 0.0000,  0.0000,  0.0000)
  14 Fe     7.880540    2.749852    7.663660    ( 0.0000,  0.0000,  0.0000)
  15 Fe     7.880540    2.703546    0.185834    ( 0.0000,  0.0000,  0.0000)
  16 O      2.923598    1.450588   13.814659    ( 0.0000,  0.0000,  0.0000)
  17 O      2.923598    3.943726    6.336834    ( 0.0000,  0.0000,  0.0000)
  18 O      7.650302    4.158491   13.772595    ( 0.0000,  0.0000,  0.0000)
  19 O      7.558046    1.293997    6.295590    ( 0.0000,  0.0000,  0.0000)
  20 F      0.036500    1.977014    3.648091    ( 0.0000,  0.0000,  0.0000)
  21 F      0.036500    3.388639   11.125917    ( 0.0000,  0.0000,  0.0000)
  22 F      4.670484    4.684364    3.670638    ( 0.0000,  0.0000,  0.0000)
  23 F      4.763203    0.756942   11.083852    ( 0.0000,  0.0000,  0.0000)
  24 F      0.244976    2.124270    8.659520    ( 0.0000,  0.0000,  0.0000)
  25 F      0.244976    3.241917    1.181694    ( 0.0000,  0.0000,  0.0000)
  26 F      4.930358    4.828127    8.753800    ( 0.0000,  0.0000,  0.0000)
  27 F      4.971679    0.590353    1.139630    ( 0.0000,  0.0000,  0.0000)
  28 F      1.664915    1.157759    1.234055    ( 0.0000,  0.0000,  0.0000)
  29 F      1.664915    4.221552    8.711881    ( 0.0000,  0.0000,  0.0000)
  30 F      6.391619    3.865662    1.178934    ( 0.0000,  0.0000,  0.0000)
  31 F      6.391619    1.531234    8.669816    ( 0.0000,  0.0000,  0.0000)
  32 F      1.715548    1.100581   11.043749    ( 0.0000,  0.0000,  0.0000)
  33 F      1.715548    4.279334    3.565923    ( 0.0000,  0.0000,  0.0000)
  34 F      6.442251    3.808484   10.926981    ( 0.0000,  0.0000,  0.0000)
  35 F      6.442251    1.627770    3.666880    ( 0.0000,  0.0000,  0.0000)
  36 F      1.786722    1.092510    6.320255    ( 0.0000,  0.0000,  0.0000)
  37 F      1.786722    4.288253   13.798081    ( 0.0000,  0.0000,  0.0000)
  38 F      6.421312    3.799864    6.279011    ( 0.0000,  0.0000,  0.0000)
  39 F      6.513426    1.636689   13.756016    ( 0.0000,  0.0000,  0.0000)
  40 F      2.774358    1.849515    8.623789    ( 0.0000,  0.0000,  0.0000)
  41 F      2.774358    3.516974    1.145964    ( 0.0000,  0.0000,  0.0000)
  42 F      7.501061    4.583465    8.682092    ( 0.0000,  0.0000,  0.0000)
  43 F      7.501061    0.865410    1.103899    ( 0.0000,  0.0000,  0.0000)
  44 F      2.865384    1.654989    3.683786    ( 0.0000,  0.0000,  0.0000)
  45 F      2.865384    3.738632   11.161611    ( 0.0000,  0.0000,  0.0000)
  46 F      7.592088    4.362892    3.641721    ( 0.0000,  0.0000,  0.0000)
  47 F      7.592088    1.135941   11.057226    ( 0.0000,  0.0000,  0.0000)
  48 F      4.638919    0.749288    6.284284    ( 0.0000,  0.0000,  0.0000)
  49 F      4.638919    4.665472   13.762110    ( 0.0000,  0.0000,  0.0000)
  50 F      9.365623    3.457191    6.242220    ( 0.0000,  0.0000,  0.0000)
  51 F      9.310717    2.013581   13.720534    ( 0.0000,  0.0000,  0.0000)

Unit cell:
           periodic     x           y           z      points  spacing
  1. axis:    yes    9.453407    0.056339   -0.084129    48     0.1969
  2. axis:    yes    0.000000    5.359467    0.000000    28     0.1914
  3. axis:    yes    0.000000    0.000000   14.955651    76     0.1968

  Lengths:   9.453949   5.359467  14.955651
  Angles:   90.000000  90.509872  89.658555

Effective grid spacing dv^(1/3) = 0.1950

                     log10-error:    total        iterations:
           time      wfs    density  energy       fermi  poisson
iter:   1  05:11:59  +1.49   +inf  -311.558360    3      21     
iter:   2  05:12:29  +0.29   +inf  -313.122775    3             
iter:   3  05:12:59  -0.29   +inf  -313.550177    2             
iter:   4  05:13:35  -0.46  -1.13  -310.965265    3      18     
iter:   5  05:14:13  -0.42  -1.15  -327.888833    3      31     
iter:   6  05:14:51  -0.22  -1.11  -355.654380    32     36     
iter:   7  05:15:30  -0.22  -1.12  -325.482074    3      35     
iter:   8  05:16:08  -0.30  -1.25  -318.457627    4      33     
iter:   9  05:16:47  -0.54  -1.27  -318.594263    3      33     
iter:  10  05:17:24  -0.64  -1.25  -302.936991    4      29     
iter:  11  05:18:02  -1.29  -1.40  -301.182642    3      27     
iter:  12  05:18:38  -1.84  -1.42  -300.416820    3      20     
iter:  13  05:19:15  -1.79  -1.45  -305.275346    4      28     
iter:  14  05:19:53  -1.32  -1.36  -308.841774    3      32     
iter:  15  05:20:31  -1.17  -1.33  -304.451816    3      30     
iter:  16  05:21:12  -1.39  -1.40  -301.715886    3      22     
iter:  17  05:22:02  -1.34  -1.45  -305.211693    3      28     
iter:  18  05:22:44  -1.42  -1.41  -300.075812    4      27     
iter:  19  05:23:32  -1.95  -1.49  -301.170507    4      21     
iter:  20  05:24:21  -1.58  -1.47  -305.603963    3      30     
iter:  21  05:25:09  -1.45  -1.39  -300.763033    4      29     
iter:  22  05:25:46  -1.58  -1.50  -302.766347    4      27     
iter:  23  05:26:31  -1.56  -1.48  -301.141888    4      26     
iter:  24  05:27:21  -1.26  -1.56  -303.214648    3      25     
iter:  25  05:28:09  -1.43  -1.46  -303.174150    3      27     
iter:  26  05:28:47  -1.39  -1.48  -305.329438    3      30     
iter:  27  05:29:31  -1.38  -1.47  -301.572580    4      29     
iter:  28  05:30:14  -1.84  -1.55  -299.634773    3      25     
iter:  29  05:30:51  -2.35  -1.64  -299.788011    3      12     
iter:  30  05:31:26  -2.06  -1.64  -299.871080    3      17     
iter:  31  05:32:03  -1.94  -1.64  -301.170644    4      23     
iter:  32  05:32:40  -1.36  -1.61  -315.480926    4      32     
iter:  33  05:33:17  -1.22  -1.34  -303.264608    4      32     
iter:  34  05:33:54  -1.34  -1.57  -303.332738    3      29     
iter:  35  05:34:30  -1.50  -1.56  -301.047553    3      25     
iter:  36  05:35:06  -1.92  -1.64  -299.670076    3      20     
iter:  37  05:35:42  -2.53  -1.73  -299.806957    3      18     
iter:  38  05:36:19  -1.65  -1.73  -313.430088    4      31     
iter:  39  05:36:55  -1.28  -1.37  -304.358222    3      32     
iter:  40  05:37:31  -1.62  -1.55  -299.769857    4      27     
iter:  41  05:38:07  -2.14  -1.75  -299.897080    3      18     
iter:  42  05:38:42  -1.97  -1.77  -300.708382    2      20     
iter:  43  05:39:24  -2.19  -1.70  -299.678171    3      18     
iter:  44  05:40:06  -1.71  -1.79  -309.760104    3      30     
iter:  45  05:40:42  -1.42  -1.43  -300.728544    4      31     
iter:  46  05:41:20  -1.79  -1.74  -300.881900    3      25     
iter:  47  05:41:55  -1.73  -1.73  -300.674926    3      23     
iter:  48  05:42:29  -1.85  -1.74  -300.386036    3      13     
iter:  49  05:43:05  -2.27  -1.78  -299.382066    3      22     
iter:  50  05:43:42  -1.89  -1.90  -306.172618    3      29     
iter:  51  05:44:19  -1.58  -1.51  -300.363147    4      30     
iter:  52  05:44:56  -2.07  -1.79  -299.598357    3      21     
iter:  53  05:45:31  -2.38  -1.90  -299.781789    3      19     
iter:  54  05:46:06  -2.00  -1.87  -300.926996    3      22     
iter:  55  05:46:41  -2.08  -1.78  -299.371123    3      23     
iter:  56  05:47:17  -2.11  -1.96  -301.573150    3      26     
iter:  57  05:47:53  -1.92  -1.71  -299.487562    3      27     
iter:  58  05:48:28  -2.37  -1.97  -299.515232    3      15     
iter:  59  05:49:09  -2.25  -1.98  -300.273802    3      20     
iter:  60  05:49:45  -2.12  -1.91  -300.192568    3      25     
iter:  61  05:50:22  -1.96  -2.00  -300.070369    3      25     
iter:  62  05:50:58  -1.98  -1.90  -301.571094    3      27     
iter:  63  05:51:35  -2.01  -1.75  -299.463566    4      27     
iter:  64  05:52:09  -2.66  -2.13  -299.307377    2      13     
iter:  65  05:52:45  -3.25  -2.21  -299.384275    3      11     
iter:  66  05:53:21  -2.60  -2.18  -299.944688    3      23     
iter:  67  05:53:57  -2.45  -2.00  -299.488849    3      22     
iter:  68  05:54:37  -2.16  -2.16  -301.431188    3      26     
iter:  69  05:55:16  -2.11  -1.76  -299.445125    3      27     
iter:  70  05:55:50  -2.77  -2.17  -299.305848    3      13     
iter:  71  05:56:25  -3.41  -2.28  -299.316435    3      11     
iter:  72  05:57:00  -2.99  -2.26  -299.595139    3      21     
iter:  73  05:57:35  -3.00  -2.11  -299.319755    3      20     
iter:  74  05:58:11  -2.23  -2.29  -302.509161    3      27     
iter:  75  05:58:48  -2.07  -1.69  -299.364167    4      27     
iter:  76  05:59:23  -2.69  -2.31  -299.367024    3      13     
iter:  77  05:59:57  -2.90  -2.24  -299.349044    3      11     
iter:  78  06:00:33  -3.01  -2.29  -299.355047    3      14     
iter:  79  06:01:07  -3.10  -2.33  -299.317020    3      13     
iter:  80  06:01:43  -2.41  -2.33  -301.153239    3      26     
iter:  81  06:02:20  -2.21  -1.81  -299.405596    3      25     
iter:  82  06:02:55  -2.93  -2.26  -299.289102    3      19     
iter:  83  06:03:30  -3.42  -2.39  -299.290310    2      13     
iter:  84  06:04:06  -3.41  -2.41  -299.306439    3      14     
iter:  85  06:04:40  -3.55  -2.40  -299.274724    3      8      
iter:  86  06:05:16  -2.66  -2.44  -300.022411    3      23     
iter:  87  06:05:52  -2.52  -1.98  -299.277916    3      23     
iter:  88  06:06:28  -3.16  -2.46  -299.370323    3      18     
iter:  89  06:07:04  -3.27  -2.34  -299.281465    2      18     
iter:  90  06:07:39  -3.43  -2.46  -299.296768    2      10     
iter:  91  06:08:14  -3.28  -2.46  -299.266492    2      11     
iter:  92  06:08:59  -3.10  -2.52  -299.369641    3      19     
iter:  93  06:09:48  -2.87  -2.36  -299.275827    3      17     
iter:  94  06:10:33  -3.32  -2.55  -299.325543    3      16     
iter:  95  06:11:13  -3.23  -2.43  -299.332649    2      19     
iter:  96  06:11:49  -3.11  -2.40  -299.344164    3      15     
iter:  97  06:12:24  -3.13  -2.47  -299.268346    3      14     
iter:  98  06:12:59  -3.20  -2.58  -299.302422    3      15     
iter:  99  06:13:35  -3.27  -2.46  -299.254872    2      16     
iter: 100  06:14:10  -3.55  -2.66  -299.285016    3      14     
iter: 101  06:14:46  -3.63  -2.54  -299.246783    2      16     
iter: 102  06:15:21  -3.48  -2.68  -299.312036    3      14     
iter: 103  06:15:55  -3.44  -2.50  -299.247620    3      8      
iter: 104  06:16:30  -4.02  -2.71  -299.245531    2      11     
iter: 105  06:17:04  -4.18  -2.73  -299.239777    2      7      
iter: 106  06:17:39  -4.25  -2.78  -299.246877    2      11     
iter: 107  06:18:15  -3.85  -2.72  -299.264711    2      15     
iter: 108  06:18:50  -3.95  -2.64  -299.247530    2      14     
iter: 109  06:19:25  -3.93  -2.77  -299.262449    2      15     
iter: 110  06:20:00  -3.75  -2.65  -299.256371    2      14     
iter: 111  06:20:34  -3.67  -2.75  -299.242268    2      9      
iter: 112  06:21:09  -4.31  -2.82  -299.246184    2      9      
iter: 113  06:21:43  -4.08  -2.84  -299.256825    2      14     
iter: 114  06:22:17  -4.08  -2.70  -299.243119    2      13     
iter: 115  06:22:50  -4.13  -2.84  -299.255837    3      13     
iter: 116  06:23:24  -3.99  -2.73  -299.251871    2      14     
iter: 117  06:23:57  -3.57  -2.96  -299.256370    3      9      
iter: 118  06:24:31  -3.72  -2.74  -299.243095    2      12     
iter: 119  06:25:05  -4.04  -2.90  -299.252005    2      12     
iter: 120  06:25:41  -3.98  -2.88  -299.244416    2      12     
iter: 121  06:26:23  -4.35  -2.94  -299.241242    2      11     
iter: 122  06:26:57  -4.76  -3.01  -299.237867    2      7      
iter: 123  06:27:30  -4.44  -3.13  -299.244805    2      6      
iter: 124  06:28:03  -4.39  -3.04  -299.244206    2      9      
iter: 125  06:28:36  -4.61  -3.09  -299.241387    2      9      
iter: 126  06:29:10  -4.20  -3.16  -299.251768    2      12     
iter: 127  06:29:44  -4.03  -2.90  -299.249707    2      14     
iter: 128  06:30:18  -4.27  -2.85  -299.239532    2      12     
iter: 129  06:30:51  -4.85  -3.29  -299.238484    2      5      
iter: 130  06:31:30  -5.17  -3.29  -299.238657    2      4      
iter: 131  06:32:09  -5.23  -3.37  -299.238404    2      6      
iter: 132  06:32:47  -5.13  -3.26  -299.238300    2      4      
iter: 133  06:33:20  -5.74  -3.38  -299.238522    2      4      
iter: 134  06:33:52  -5.57  -3.40  -299.239072    2      4      
iter: 135  06:34:26  -5.03  -3.36  -299.240358    2      6      
iter: 136  06:34:59  -4.99  -3.30  -299.238630    2      4      
iter: 137  06:35:32  -4.89  -3.38  -299.241038    2      9      
iter: 138  06:36:06  -4.79  -3.16  -299.239357    2      9      
iter: 139  06:36:39  -5.07  -3.37  -299.238675    2      5      
iter: 140  06:37:13  -5.32  -3.42  -299.239226    2      6      
iter: 141  06:37:47  -5.28  -3.39  -299.239118    2      4      
iter: 142  06:38:19  -5.08  -3.43  -299.239546    2      4      
iter: 143  06:38:52  -5.05  -3.43  -299.239392    2      6      
iter: 144  06:39:26  -4.86  -3.32  -299.242222    2      10     
iter: 145  06:39:59  -4.91  -3.18  -299.238539    2      8      
iter: 146  06:40:33  -5.62  -3.56  -299.238525    2      3      
iter: 147  06:41:06  -5.45  -3.59  -299.239273    2      4      
iter: 148  06:41:45  -5.36  -3.48  -299.238469    2      4      
iter: 149  06:42:24  -5.91  -3.58  -299.238498    2      3      
iter: 150  06:43:03  -5.94  -3.63  -299.238870    2      4      
iter: 151  06:43:36  -5.93  -3.57  -299.238608    2      3      
iter: 152  06:44:08  -6.07  -3.64  -299.238622    2      3      
iter: 153  06:44:43  -5.73  -3.65  -299.238327    2      5      
iter: 154  06:45:16  -5.38  -3.55  -299.239073    2      4      
iter: 155  06:45:49  -5.40  -3.56  -299.238597    2      4      
iter: 156  06:46:25  -5.87  -3.67  -299.239059    2      4      
iter: 157  06:46:57  -5.81  -3.61  -299.239000    2      4      
iter: 158  06:47:31  -5.65  -3.67  -299.238777    2      3      
iter: 159  06:48:05  -5.48  -3.68  -299.238460    2      6      
iter: 160  06:48:38  -5.36  -3.53  -299.238597    2      4      
iter: 161  06:49:10  -5.35  -3.62  -299.238672    2      4      
iter: 162  06:49:42  -5.91  -3.77  -299.238751    2      3      
iter: 163  06:50:15  -5.81  -3.80  -299.238840    2      4      
iter: 164  06:50:47  -5.64  -3.70  -299.239071    2      3      
iter: 165  06:51:22  -6.08  -3.77  -299.238770    2      3      
iter: 166  06:51:56  -5.71  -3.86  -299.238628    2      5      
iter: 167  06:52:35  -5.78  -3.69  -299.238404    2      3      
iter: 168  06:53:14  -6.08  -3.91  -299.238684    2      3      
iter: 169  06:53:52  -6.05  -3.88  -299.238955    2      3      
iter: 170  06:54:24  -6.17  -3.88  -299.239002    2      3      
iter: 171  06:54:56  -6.45  -3.91  -299.238794    2      2      
iter: 172  06:55:29  -6.98  -4.02  -299.238641    2      2      
iter: 173  06:56:02  -6.31  -4.03  -299.238674    2      3      
iter: 174  06:56:34  -6.25  -3.88  -299.238553    2      3      
iter: 175  06:57:09  -6.69  -4.03  -299.238573    2      2      
iter: 176  06:57:41  -6.70  -4.04  -299.238720    2      2      
iter: 177  06:58:14  -6.83  -4.06  -299.238731    2      2      
iter: 178  06:58:48  -6.95  -4.07  -299.238656    1      2      
iter: 179  06:59:20  -7.23  -4.11  -299.238628    2      2      
iter: 180  06:59:53  -6.95  -4.12  -299.238619    2      2      
iter: 181  07:00:25  -6.71  -4.09  -299.238687    2      2      
iter: 182  07:00:57  -6.60  -4.13  -299.238546    2      2      
iter: 183  07:01:31  -6.37  -4.07  -299.238666    2      3      
iter: 184  07:02:03  -6.21  -4.08  -299.238743    2      3      
iter: 185  07:02:42  -6.55  -4.14  -299.238692    2      2      
iter: 186  07:03:20  -6.59  -4.15  -299.238708    2      4      
iter: 187  07:03:53  -6.25  -4.14  -299.238779    2      3      
iter: 188  07:04:25  -6.56  -4.15  -299.238661    2      2      
iter: 189  07:04:58  -6.36  -4.23  -299.238556    2      4      
iter: 190  07:05:30  -6.50  -4.06  -299.238676    2      2      
iter: 191  07:06:02  -6.87  -4.29  -299.238741    2      2      
iter: 192  07:06:35  -6.34  -4.48  -299.238807    2      3      
iter: 193  07:07:08  -6.32  -4.02  -299.238813    2      3      
iter: 194  07:07:41  -6.86  -4.17  -299.238892    2      2      
iter: 195  07:08:15  -7.26  -4.32  -299.238776    2      2      
iter: 196  07:08:47  -6.60  -4.53  -299.238682    2      3      
iter: 197  07:09:20  -6.63  -4.27  -299.238667    2      2      
iter: 198  07:09:52  -7.53  -4.53  -299.238679    2      2      

Converged after 198 iterations.

Dipole moment: (-23.771930, -6.953240, 1.994151) |e|*Ang

Energy contributions relative to reference atoms: (reference = -648925.267931)

Kinetic:       +206.313582
Potential:     -240.146573
External:        +0.000000
XC:            -277.900577
Entropy (-ST):   -2.910645
Local:          +13.950211
--------------------------
Free energy:   -300.694002
Extrapolated:  -299.238679

Fermi level: 1.51668

 Band  Eigenvalues  Occupancy
    0    -22.40076    2.00000
    1    -22.29494    2.00000
    2    -22.28951    2.00000
    3    -22.20756    2.00000
    4    -22.20340    2.00000
    5    -22.06928    2.00000
    6    -22.04752    2.00000
    7    -21.99580    2.00000
    8    -21.96990    2.00000
    9    -21.91856    2.00000
   10    -21.76655    2.00000
   11    -21.74107    2.00000
   12    -21.68513    2.00000
   13    -21.66633    2.00000
   14    -21.59890    2.00000
   15    -21.54629    2.00000
   16    -21.50439    2.00000
   17    -21.47048    2.00000
   18    -21.44273    2.00000
   19    -21.43476    2.00000
   20    -21.40899    2.00000
   21    -21.35871    2.00000
   22    -21.34955    2.00000
   23    -21.32208    2.00000
   24    -21.29377    2.00000
   25    -21.27602    2.00000
   26    -21.22857    2.00000
   27    -21.17967    2.00000
   28    -21.17645    2.00000
   29    -21.16366    2.00000
   30    -21.15160    2.00000
   31    -21.12516    2.00000
   32    -17.30576    2.00000
   33    -17.09086    2.00000
   34    -17.08136    2.00000
   35    -16.97032    2.00000
   36     -5.50464    2.00000
   37     -5.38903    2.00000
   38     -5.33610    2.00000
   39     -5.33021    2.00000
   40     -5.24589    2.00000
   41     -5.16862    2.00000
   42     -5.10997    2.00000
   43     -5.01968    2.00000
   44     -4.91044    2.00000
   45     -4.85965    2.00000
   46     -4.74463    2.00000
   47     -4.71539    2.00000
   48     -4.63918    2.00000
   49     -4.61809    2.00000
   50     -4.59541    2.00000
   51     -4.53649    2.00000
   52     -4.50513    2.00000
   53     -4.47854    2.00000
   54     -4.42653    2.00000
   55     -4.42127    2.00000
   56     -4.41011    2.00000
   57     -4.39303    2.00000
   58     -4.37006    2.00000
   59     -4.33372    2.00000
   60     -4.33081    2.00000
   61     -4.29684    2.00000
   62     -4.27601    2.00000
   63     -4.26704    2.00000
   64     -4.24008    2.00000
   65     -4.21043    2.00000
   66     -4.20011    2.00000
   67     -4.16644    2.00000
   68     -4.15832    2.00000
   69     -4.12064    2.00000
   70     -4.11324    2.00000
   71     -4.08105    2.00000
   72     -4.06642    2.00000
   73     -4.04541    2.00000
   74     -4.01872    2.00000
   75     -3.98637    2.00000
   76     -3.98302    2.00000
   77     -3.90629    2.00000
   78     -3.88932    2.00000
   79     -3.86881    2.00000
   80     -3.85120    2.00000
   81     -3.78240    2.00000
   82     -3.70622    2.00000
   83     -3.64693    2.00000
   84     -3.59626    2.00000
   85     -3.56933    2.00000
   86     -3.55750    2.00000
   87     -3.49913    2.00000
   88     -3.48095    2.00000
   89     -3.47541    2.00000
   90     -3.45728    2.00000
   91     -3.39081    2.00000
   92     -3.33812    2.00000
   93     -3.27099    2.00000
   94     -3.21116    2.00000
   95     -3.20772    2.00000
   96     -3.15057    2.00000
   97     -3.12192    2.00000
   98     -3.10707    2.00000
   99     -3.08648    2.00000
  100     -3.04633    2.00000
  101     -3.01437    2.00000
  102     -2.98393    2.00000
  103     -2.98160    2.00000
  104     -2.93859    2.00000
  105     -2.92295    2.00000
  106     -2.88959    2.00000
  107     -2.84088    2.00000
  108     -2.81712    2.00000
  109     -2.77577    2.00000
  110     -2.73577    2.00000
  111     -2.70608    2.00000
  112     -2.69495    2.00000
  113     -2.67982    2.00000
  114     -2.63148    2.00000
  115     -2.58433    2.00000
  116     -2.54968    2.00000
  117     -2.51642    2.00000
  118     -2.49713    2.00000
  119     -2.48910    2.00000
  120     -2.44516    2.00000
  121     -2.43154    2.00000
  122     -2.42162    2.00000
  123     -2.38568    2.00000
  124     -2.34517    2.00000
  125     -2.31893    2.00000
  126     -2.29904    2.00000
  127     -2.27673    2.00000
  128     -2.26925    2.00000
  129     -2.23310    2.00000
  130     -2.20180    2.00000
  131     -2.19528    2.00000
  132     -2.14720    2.00000
  133     -2.10868    2.00000
  134     -2.08680    2.00000
  135     -2.05815    2.00000
  136     -2.02717    2.00000
  137     -1.99879    2.00000
  138     -1.93333    2.00000
  139     -1.92576    2.00000
  140     -1.90294    2.00000
  141     -1.86149    2.00000
  142     -1.84236    2.00000
  143     -1.81041    2.00000
  144      0.71983    1.99931
  145      0.75377    1.99903
  146      0.76200    1.99894
  147      0.80381    1.99840
  148      0.82317    1.99806
  149      0.85004    1.99746
  150      0.89262    1.99611
  151      0.89483    1.99602
  152      0.93177    1.99425
  153      0.95104    1.99303
  154      0.96004    1.99238
  155      0.96897    1.99167
  156      0.97485    1.99117
  157      0.98494    1.99024
  158      1.01090    1.98736
  159      1.03688    1.98364
  160      1.05987    1.97946
  161      1.08246    1.97432
  162      1.09037    1.97223
  163      1.11376    1.96504
  164      1.13777    1.95577
  165      1.14132    1.95421
  166      1.15212    1.94912
  167      1.15649    1.94690
  168      1.17094    1.93890
  169      1.17781    1.93470
  170      1.18293    1.93138
  171      1.19924    1.91972
  172      1.20653    1.91390
  173      1.21411    1.90744
  174      1.22756    1.89481
  175      1.25905    1.85863
  176      1.27407    1.83759
  177      1.30079    1.79299
  178      1.31670    1.76155
  179      1.33058    1.73083
  180      1.33612    1.71766
  181      1.36301    1.64596
  182      1.38819    1.56656
  183      1.38985    1.56090
  184      1.40576    1.50395
  185      1.42256    1.43869
  186      1.43757    1.37614
  187      1.46474    1.25398
  188      1.51144    1.02618
  189      1.53411    0.91307
  190      1.54108    0.87857
  191      1.60257    0.59513
  192      1.62068    0.52230
  193      1.64707    0.42700
  194      1.65742    0.39328
  195      1.68647    0.30947
  196      1.73074    0.21041
  197      1.76192    0.15852
  198      1.78601    0.12673
  199      1.80807    0.10294
  200      1.85689    0.06446
  201      1.86289    0.06082
  202      1.87061    0.05643
  203      1.92975    0.03163
  204      2.03428    0.01124
  205      2.05772    0.00890
  206      2.13321    0.00419
  207      2.14813    0.00361
  208      2.17597    0.00274
  209      2.33057    0.00058
  210      2.34734    0.00049
  211      2.37973    0.00036
  212      2.43805    0.00020
  213      2.46918    0.00015
  214      2.49142    0.00012
  215      2.62629    0.00003
  216      2.64379    0.00003
  217      2.66610    0.00002
  218      2.76326    0.00001
  219      2.76823    0.00001
  220      2.79687    0.00001
  221      2.85401    0.00000
  222      2.91855    0.00000
  223      2.95841    0.00000
  224      4.83660    0.00000
  225      5.64345    0.00000
  226      6.15853    0.00000
  227      6.70090    0.00000
  228      7.25839    0.00000
  229      7.56523    0.00000
  230      7.70124    0.00000
  231      7.91291    0.00000
  232      8.12833    0.00000
  233      8.36838    0.00000
  234      8.54714    0.00000
  235      8.85192    0.00000
  236      9.77715    0.00000
  237      9.93132    0.00000
  238      9.98835    0.00000
  239     10.05479    0.00000
  240     10.35673    0.00000
  241     10.64538    0.00000
  242     10.70653    0.00000
  243     10.77941    0.00000
  244     10.85158    0.00000
  245     10.90969    0.00000
  246     10.95988    0.00000
  247     11.10897    0.00000
  248     11.17458    0.00000
  249     11.33077    0.00000
  250     11.40680    0.00000
  251     11.57838    0.00000
  252     11.65418    0.00000
  253     11.72919    0.00000
  254     11.76679    0.00000
  255     11.85534    0.00000
  256     11.90756    0.00000
  257     11.98370    0.00000
  258     12.11785    0.00000
  259     12.18205    0.00000
  260     12.24436    0.00000
  261     12.27412    0.00000
  262     12.34158    0.00000
  263     12.40532    0.00000
  264     12.44970    0.00000
  265     12.48633    0.00000
  266     12.52510    0.00000
  267     12.56278    0.00000
  268     12.61586    0.00000
  269     12.67359    0.00000
  270     12.82356    0.00000
  271     12.94719    0.00000
  272     13.01068    0.00000
  273     13.11232    0.00000
  274     13.15670    0.00000
  275     13.20180    0.00000
  276     13.21637    0.00000
  277     13.32789    0.00000
  278     13.35774    0.00000
  279     13.48628    0.00000
  280     13.64122    0.00000
  281     13.93954    0.00000
  282     13.97604    0.00000
  283     14.13354    0.00000
  284     14.24066    0.00000
  285     14.35968    0.00000
  286     14.45186    0.00000
  287     14.48984    0.00000

Timing:                              incl.     excl.
-----------------------------------------------------------
Hamiltonian:                         6.413     0.000   0.0% |
 Atomic:                             2.366     0.005   0.0% |
  XC Correction:                     2.360     2.360   0.0% |
 Calculate atomic Hamiltonians:      0.028     0.028   0.0% |
 Communicate:                        0.000     0.000   0.0% |
 Hartree integrate/restrict:         0.015     0.015   0.0% |
 Initialize Hamiltonian:             0.000     0.000   0.0% |
 Poisson:                            3.342     3.342   0.0% |
 XC 3D grid:                         0.655     0.655   0.0% |
 vbar:                               0.006     0.006   0.0% |
LCAO initialization:                21.608     0.240   0.0% |
 LCAO eigensolver:                   2.082     0.000   0.0% |
  Calculate projections:             0.023     0.023   0.0% |
  DenseAtomicCorrection:             0.022     0.022   0.0% |
  Distribute overlap matrix:         0.000     0.000   0.0% |
  Orbital Layouts:                   0.061     0.061   0.0% |
  Potential matrix:                  1.976     1.976   0.0% |
 LCAO to grid:                      18.011    18.011   0.3% |
 Set positions (LCAO WFS):           1.275     0.000   0.0% |
  Basic WFS set positions:           0.002     0.002   0.0% |
  Basis functions set positions:     0.000     0.000   0.0% |
  TCI: Calculate S, T, P:            1.273     1.273   0.0% |
SCF-cycle:                        7107.973     0.162   0.0% |
 Davidson:                        6025.681   949.310  13.3% |----|
  Apply hamiltonian:               185.717   185.717   2.6% ||
  Subspace diag:                  1752.645     0.040   0.0% |
   calc_h_matrix:                  713.085   527.121   7.4% |--|
    Apply hamiltonian:             185.964   185.964   2.6% ||
   diagonalize:                      4.307     4.307   0.1% |
   rotate_psi:                    1035.213  1035.213  14.5% |-----|
  calc. matrices:                 2082.297  1896.985  26.6% |----------|
   Apply hamiltonian:              185.312   185.312   2.6% ||
  diagonalize:                      19.017    19.017   0.3% |
  rotate_psi:                     1036.695  1036.695  14.5% |-----|
 Density:                           20.643     0.006   0.0% |
  Atomic density matrices:           1.276     1.276   0.0% |
  Mix:                               9.627     9.627   0.1% |
  Multipole moments:                 0.241     0.241   0.0% |
  Pseudo density:                    9.493     9.489   0.1% |
   Symmetrize density:               0.005     0.005   0.0% |
 Hamiltonian:                     1055.766     0.028   0.0% |
  Atomic:                          464.215     1.020   0.0% |
   XC Correction:                  463.195   463.195   6.5% |--|
  Calculate atomic Hamiltonians:     5.895     5.895   0.1% |
  Communicate:                       0.002     0.002   0.0% |
  Hartree integrate/restrict:        3.415     3.415   0.0% |
  Poisson:                         452.333   452.333   6.3% |--|
  XC 3D grid:                      128.715   128.715   1.8% ||
  vbar:                              1.164     1.164   0.0% |
 Orthonormalize:                     5.722     0.000   0.0% |
  calc_s_matrix:                     1.601     1.601   0.0% |
  inverse-cholesky:                  0.005     0.005   0.0% |
  projections:                       1.474     1.474   0.0% |
  rotate_psi_s:                      2.642     2.642   0.0% |
Set symmetry:                        0.001     0.001   0.0% |
Other:                               1.405     1.405   0.0% |
-----------------------------------------------------------
Total:                                      7137.401 100.0%

Memory usage: 1.07 GiB
Date: Fri Mar 29 07:09:52 2019
