
  ___ ___ ___ _ _ _  
 |   |   |_  | | | | 
 | | | | | . | | | | 
 |__ |  _|___|_____|  1.4.0
 |___|_|             

User:   murakami@tssm1.eng.shizuoka.ac.jp
Date:   Wed Mar 27 11:41:09 2019
Arch:   x86_64
Pid:    31289
Python: 3.6.5
gpaw:   /home/murakami/.local/lib/python3.6/site-packages/gpaw
_gpaw:  /home/murakami/.local/lib/python3.6/site-packages/
        _gpaw.cpython-36m-x86_64-linux-gnu.so
ase:    /home/murakami/.local/lib/python3.6/site-packages/ase (version 3.16.2)
numpy:  /home/murakami/.local/lib/python3.6/site-packages/numpy (version 1.15.2)
scipy:  /home/murakami/.local/lib/python3.6/site-packages/scipy (version 1.1.0)
units:  Angstrom and eV
cores:  1

Input parameters:
  kpts: {size: (1, 1, 1)}
  maxiter: 300
  xc: PBE

System changes: positions, numbers, cell, pbc, initial_charges, initial_magmoms 

Initialize ...

Fe-setup:
  name: Iron
  id: 37abbd8d6c3c35915a9b583b742da910
  Z: 26
  valence: 8
  core: 18
  charge: 0.0
  file: /home/murakami/Public/gpaw-setups-0.9.20000/Fe.PBE.gz
  cutoffs: 1.06(comp), 2.06(filt), 2.67(core), lmax=2
  valence states:
                energy  radius
    4s(2.00)    -5.291   1.164
    4p(0.00)    -1.326   1.058
    3d(6.00)    -7.505   1.058
    *s          21.920   1.164
    *p          25.885   1.058
    *d          19.706   1.058

  Using partial waves for Fe as LCAO basis

O-setup:
  name: Oxygen
  id: 32ecd46bf208036f09c70b0ec9a88b78
  Z: 8
  valence: 6
  core: 2
  charge: 0.0
  file: /home/murakami/Public/gpaw-setups-0.9.20000/O.PBE.gz
  cutoffs: 0.67(comp), 1.17(filt), 0.83(core), lmax=2
  valence states:
                energy  radius
    2s(2.00)   -23.961   0.688
    2p(4.00)    -9.029   0.598
    *s           3.251   0.688
    *p          18.182   0.598
    *d           0.000   0.619

  Using partial waves for O as LCAO basis

F-setup:
  name: Fluorine
  id: 9cd46ba2a61e170ad72278be75b55cc0
  Z: 9
  valence: 7
  core: 2
  charge: 0.0
  file: /home/murakami/Public/gpaw-setups-0.9.20000/F.PBE.gz
  cutoffs: 0.64(comp), 1.14(filt), 0.74(core), lmax=2
  valence states:
                energy  radius
    2s(2.00)   -29.898   0.635
    2p(5.00)   -11.110   0.635
    *s          -2.687   0.635
    *p          16.102   0.635
    *d           0.000   0.635

  Using partial waves for F as LCAO basis

Reference energy: -648925.267931

Spin-paired calculation

Occupation numbers:
  Fermi-Dirac: width=0.1000 eV

Convergence criteria:
  Maximum total energy change: 0.0005 eV / electron
  Maximum integral of absolute density change: 0.0001 electrons
  Maximum integral of absolute eigenstate change: 4e-08 eV^2
  Maximum number of iterations: 300

Symmetries present (total): 1

  ( 1  0  0)
  ( 0  1  0)
  ( 0  0  1)

1 k-point (Gamma)
1 k-point in the irreducible part of the Brillouin zone
       k-points in crystal coordinates                weights
   0:     0.00000000    0.00000000    0.00000000          1/1

Wave functions: Uniform real-space grid
  Kinetic energy operator: 8*3+1=25 point O(h^6) finite-difference Laplacian
  ScaLapack parameters: grid=1x1, blocksize=None 

Eigensolver
   Davidson(niter=1, smin=None, normalize=True) 

Densities:
  Coarse grid: 48*28*76 grid
  Fine grid: 96*56*152 grid
  Total Charge: 0.000000 

Density mixing:
  Method: separate
  Backend: pulay
  Linear mixing parameter: 0.05
  Mixing with 5 old densities
  Damping of long wave oscillations: 50 

Hamiltonian:
  XC and Coulomb potentials evaluated on a 96*56*152 grid
  Using the PBE Exchange-Correlation functional
  Interpolation: tri-quintic (5. degree polynomial)
  Poisson solver: Jacobi solver with 4 multi-grid levels
    Coarsest grid: 12 x 7 x 19 points
    Stencil: 8*3+1=25 point O(h^6) finite-difference Laplacian
    Max iterations: 1000
    Tolerance: 2.000000e-10 

Memory estimate:
  Process memory now: 1097.44 MiB
  Calculator: 625.81 MiB
    Density: 116.13 MiB
      Arrays: 20.26 MiB
      Localized functions: 88.08 MiB
      Mixer: 7.79 MiB
    Hamiltonian: 35.03 MiB
      Arrays: 13.25 MiB
      XC: 0.00 MiB
      Poisson: 15.10 MiB
      vbar: 6.68 MiB
    Wavefunctions: 474.64 MiB
      Arrays psit_nG: 224.44 MiB
      Eigensolver: 234.67 MiB
      Projections: 1.66 MiB
      Projectors: 13.87 MiB

Total number of cores used: 1

Number of atoms: 52
Number of atomic orbitals: 288
Number of bands in calculation: 288
Bands to converge: occupied states only
Number of valence electrons: 376

... initialized

Initializing position-dependent things.

Density initialized from atomic densities
Creating initial wave functions:
  288 bands from LCAO basis set

                                           
                                           
                                           
                                           
                          Fe               
              F      F                     
             Fe              O             
               O        F       F          
                            Fe             
         F       F       F                 
               Fe                          
            FFe    F       F               
              F        F     F             
         F     F       Fe                  
                        F   Fe             
             Fe  O        F     F          
               Fe Fe                       
            F      F   Fe  O               
              F       F     Fe             
                          Fe               
         F   FeF        F                  
                         F                 
          F     F Fe                       
            F                              
                    F     F Fe             
                                           
                                           
                                           
                                           
                                           

Positions:
   0 Fe     1.542848    2.593853    2.677597    ( 0.0000,  0.0000,  0.0000)
   1 Fe     1.542848    2.765614   10.155423    ( 0.0000,  0.0000,  0.0000)
   2 Fe     6.243444    5.273587    2.635533    ( 0.0000,  0.0000,  0.0000)
   3 Fe     6.243444    0.085880   10.113358    ( 0.0000,  0.0000,  0.0000)
   4 Fe     1.684327    2.534235   14.537254    ( 0.0000,  0.0000,  0.0000)
   5 Fe     1.733382    2.825232    7.058990    ( 0.0000,  0.0000,  0.0000)
   6 Fe     6.372757    5.213968   14.495299    ( 0.0000,  0.0000,  0.0000)
   7 Fe     6.348925    0.168400    7.017686    ( 0.0000,  0.0000,  0.0000)
   8 Fe     3.117708    0.157643   12.271643    ( 0.0000,  0.0000,  0.0000)
   9 Fe     3.117708    5.201824    4.793817    ( 0.0000,  0.0000,  0.0000)
  10 Fe     7.818303    2.885253   12.229578    ( 0.0000,  0.0000,  0.0000)
  11 Fe     7.818303    2.522090    4.751753    ( 0.0000,  0.0000,  0.0000)
  12 Fe     3.136416    0.023153    7.705724    ( 0.0000,  0.0000,  0.0000)
  13 Fe     3.136416    5.340516    0.227899    ( 0.0000,  0.0000,  0.0000)
  14 Fe     7.837011    2.702886    7.663660    ( 0.0000,  0.0000,  0.0000)
  15 Fe     7.837011    2.656581    0.185834    ( 0.0000,  0.0000,  0.0000)
  16 O      2.907450    1.433164   13.814659    ( 0.0000,  0.0000,  0.0000)
  17 O      2.907450    3.926303    6.336834    ( 0.0000,  0.0000,  0.0000)
  18 O      7.639934    4.112898   13.772309    ( 0.0000,  0.0000,  0.0000)
  19 O      7.608045    1.246569    6.294769    ( 0.0000,  0.0000,  0.0000)
  20 F      0.036298    1.976797    3.648091    ( 0.0000,  0.0000,  0.0000)
  21 F      0.036298    3.382670   11.125917    ( 0.0000,  0.0000,  0.0000)
  22 F      4.736893    4.656530    3.606027    ( 0.0000,  0.0000,  0.0000)
  23 F      4.736893    0.702937   11.083852    ( 0.0000,  0.0000,  0.0000)
  24 F      0.243622    2.119010    8.659520    ( 0.0000,  0.0000,  0.0000)
  25 F      0.243622    3.240457    1.181694    ( 0.0000,  0.0000,  0.0000)
  26 F      4.944218    4.798743    8.617455    ( 0.0000,  0.0000,  0.0000)
  27 F      4.944218    0.560724    1.139630    ( 0.0000,  0.0000,  0.0000)
  28 F      1.627854    1.130569    1.234304    ( 0.0000,  0.0000,  0.0000)
  29 F      1.655719    4.211630    8.711881    ( 0.0000,  0.0000,  0.0000)
  30 F      6.356314    3.827571    1.191991    ( 0.0000,  0.0000,  0.0000)
  31 F      6.356314    1.531896    8.725840    ( 0.0000,  0.0000,  0.0000)
  32 F      1.706072    1.090357   10.940271    ( 0.0000,  0.0000,  0.0000)
  33 F      1.706072    4.269110    3.565923    ( 0.0000,  0.0000,  0.0000)
  34 F      6.406667    3.770090   11.001684    ( 0.0000,  0.0000,  0.0000)
  35 F      6.500068    1.589377    3.523023    ( 0.0000,  0.0000,  0.0000)
  36 F      1.776853    1.081862    6.320255    ( 0.0000,  0.0000,  0.0000)
  37 F      1.776853    4.277605   13.798081    ( 0.0000,  0.0000,  0.0000)
  38 F      6.477449    3.761596    6.278191    ( 0.0000,  0.0000,  0.0000)
  39 F      6.552987    1.597871   13.755340    ( 0.0000,  0.0000,  0.0000)
  40 F      2.759033    1.859028    8.623789    ( 0.0000,  0.0000,  0.0000)
  41 F      2.759033    3.500439    1.145964    ( 0.0000,  0.0000,  0.0000)
  42 F      7.459629    4.538761    8.581725    ( 0.0000,  0.0000,  0.0000)
  43 F      7.459629    0.820706    1.103899    ( 0.0000,  0.0000,  0.0000)
  44 F      2.849557    1.637912    3.683786    ( 0.0000,  0.0000,  0.0000)
  45 F      2.849557    3.721555   11.161611    ( 0.0000,  0.0000,  0.0000)
  46 F      7.521949    4.317646    3.629306    ( 0.0000,  0.0000,  0.0000)
  47 F      7.550153    1.041821   11.119547    ( 0.0000,  0.0000,  0.0000)
  48 F      4.700652    0.721642    6.283502    ( 0.0000,  0.0000,  0.0000)
  49 F      4.562971    4.628371   13.762560    ( 0.0000,  0.0000,  0.0000)
  50 F      9.313892    3.401375    6.242220    ( 0.0000,  0.0000,  0.0000)
  51 F      9.323697    1.958092   13.719957    ( 0.0000,  0.0000,  0.0000)

Unit cell:
           periodic     x           y           z      points  spacing
  1. axis:    yes    9.401191    0.000000   -0.084129    48     0.1959
  2. axis:    yes    0.000000    5.359467    0.000000    28     0.1914
  3. axis:    yes    0.000000    0.000000   14.955651    76     0.1968

  Lengths:   9.401567   5.359467  14.955651
  Angles:   90.000000  90.512712  90.000000

Effective grid spacing dv^(1/3) = 0.1947

                     log10-error:    total        iterations:
           time      wfs    density  energy       fermi  poisson
iter:   1  11:42:11  +1.49   +inf  -311.611097    3      18     
iter:   2  11:42:40  +0.30   +inf  -313.199880    3             
iter:   3  11:43:08  -0.28   +inf  -313.634331    2             
iter:   4  11:43:41  -0.45  -1.13  -311.051874    3      10     
iter:   5  11:44:15  -0.47  -1.15  -321.612028    3      19     
iter:   6  11:44:50  -0.11  -1.12  -309.091716    30     23     
iter:   7  11:45:24  -0.31  -1.31  -304.450693    3      22     
iter:   8  11:45:59  -0.75  -1.36  -305.188191    3      26     
iter:   9  11:46:34  -1.02  -1.36  -302.078541    3      27     
iter:  10  11:47:09  -1.35  -1.41  -302.240281    3      28     
iter:  11  11:47:44  -1.40  -1.40  -303.482637    4      29     
iter:  12  11:48:19  -1.29  -1.41  -303.280269    3      29     
iter:  13  11:48:53  -1.47  -1.41  -301.651690    3      28     
iter:  14  11:49:27  -1.62  -1.45  -301.681972    4      25     
iter:  15  11:50:00  -1.64  -1.46  -301.469209    3      26     
iter:  16  11:50:34  -1.69  -1.47  -301.260884    3      28     
iter:  17  11:51:07  -1.71  -1.47  -301.812522    3      23     
iter:  18  11:51:43  -1.61  -1.49  -300.558900    2      22     
iter:  19  11:52:19  -1.86  -1.52  -300.721355    3      25     
iter:  20  11:52:52  -1.88  -1.52  -301.134518    3      26     
iter:  21  11:53:28  -1.98  -1.52  -300.561600    3      26     
iter:  22  11:54:04  -1.66  -1.55  -304.587451    3      28     
iter:  23  11:54:38  -1.41  -1.43  -303.940097    3      29     
iter:  24  11:55:11  -1.42  -1.50  -300.595377    3      19     
iter:  25  11:55:44  -1.91  -1.57  -300.455059    3      25     
iter:  26  11:56:19  -2.09  -1.58  -300.102113    3      25     
iter:  27  11:57:02  -2.58  -1.60  -299.628389    2      21     
iter:  28  11:57:49  -2.32  -1.64  -300.826014    3      24     
iter:  29  11:58:33  -1.93  -1.58  -300.508074    3      27     
iter:  30  11:59:11  -1.90  -1.61  -301.059669    3      20     
iter:  31  11:59:45  -1.82  -1.59  -301.680737    3      27     
iter:  32  12:00:21  -1.75  -1.58  -300.707837    2      26     
iter:  33  12:00:54  -1.82  -1.65  -300.065679    3      24     
iter:  34  12:01:29  -2.19  -1.66  -299.981190    3      22     
iter:  35  12:02:03  -2.19  -1.70  -300.175116    3      24     
iter:  36  12:02:39  -2.15  -1.68  -300.364327    3      24     
iter:  37  12:03:14  -2.05  -1.69  -300.506289    3      26     
iter:  38  12:03:48  -1.88  -1.70  -301.213866    3      24     
iter:  39  12:04:22  -1.77  -1.68  -300.952617    3      26     
iter:  40  12:04:55  -2.01  -1.67  -300.140504    2      25     
iter:  41  12:05:29  -2.34  -1.75  -299.829502    3      23     
iter:  42  12:06:02  -2.73  -1.78  -299.587072    3      21     
iter:  43  12:06:35  -2.79  -1.82  -299.773133    3      18     
iter:  44  12:07:15  -2.58  -1.81  -299.872940    2      23     
iter:  45  12:07:56  -2.46  -1.80  -299.831604    3      21     
iter:  46  12:08:36  -2.20  -1.82  -300.623760    3      21     
iter:  47  12:09:14  -1.70  -1.79  -302.534874    3      24     
iter:  48  12:09:54  -1.77  -1.64  -300.999695    3      29     
iter:  49  12:10:33  -2.01  -1.71  -300.750052    2      25     
iter:  50  12:11:18  -2.22  -1.78  -300.007045    3      25     
iter:  51  12:12:01  -2.57  -1.87  -299.643155    3      21     
iter:  52  12:12:35  -2.68  -1.94  -299.918455    3      17     
iter:  53  12:13:15  -2.36  -1.90  -299.796044    3      14     
iter:  54  12:13:55  -2.64  -1.92  -299.830133    3      22     
iter:  55  12:14:32  -2.17  -1.92  -300.998389    3      22     
iter:  56  12:15:08  -2.01  -1.81  -300.198647    3      25     
iter:  57  12:15:52  -1.93  -1.97  -300.201853    3      21     
iter:  58  12:16:32  -2.10  -1.91  -300.512155    3      24     
iter:  59  12:17:12  -2.32  -1.90  -300.186751    3      25     
iter:  60  12:18:03  -2.52  -1.94  -299.664231    3      23     
iter:  61  12:18:51  -3.06  -2.10  -299.668330    3      17     
iter:  62  12:19:33  -2.77  -2.12  -299.971966    3      21     
iter:  63  12:20:18  -2.62  -2.02  -299.721231    3      21     
iter:  64  12:21:01  -2.80  -2.11  -299.764959    3      15     
iter:  65  12:21:44  -2.58  -2.10  -300.237240    3      23     
iter:  66  12:22:28  -2.39  -1.98  -299.798865    3      21     
iter:  67  12:23:09  -2.79  -2.10  -299.680912    2      19     
iter:  68  12:23:48  -2.84  -2.17  -299.883776    3      17     
iter:  69  12:24:29  -2.74  -2.08  -299.650504    3      20     
iter:  70  12:25:12  -3.10  -2.20  -299.746256    3      18     
iter:  71  12:25:56  -2.75  -2.15  -300.110435    3      22     
iter:  72  12:26:35  -2.66  -2.04  -299.644923    3      21     
iter:  73  12:27:10  -3.28  -2.24  -299.637583    2      16     
iter:  74  12:27:45  -3.23  -2.25  -299.690988    3      17     
iter:  75  12:28:19  -2.87  -2.23  -299.695325    3      10     
iter:  76  12:28:53  -3.13  -2.22  -299.653501    2      17     
iter:  77  12:29:29  -2.87  -2.26  -300.040523    3      20     
iter:  78  12:30:04  -2.61  -2.12  -299.762203    3      22     
iter:  79  12:30:39  -3.01  -2.20  -299.645608    3      20     
iter:  80  12:31:14  -3.21  -2.31  -299.718891    3      14     
iter:  81  12:31:49  -3.11  -2.26  -299.659035    3      18     
iter:  82  12:32:24  -3.30  -2.32  -299.662419    2      17     
iter:  83  12:32:59  -2.97  -2.31  -299.788270    3      18     
iter:  84  12:33:48  -2.91  -2.27  -299.693258    2      18     
iter:  85  12:34:33  -3.08  -2.33  -299.668466    3      18     
iter:  86  12:35:14  -2.99  -2.32  -299.755050    3      18     
iter:  87  12:35:56  -3.19  -2.28  -299.642401    3      19     
iter:  88  12:36:30  -3.57  -2.41  -299.621378    2      13     
iter:  89  12:37:05  -3.74  -2.45  -299.634387    2      11     
iter:  90  12:37:47  -3.68  -2.45  -299.618838    2      10     
iter:  91  12:38:25  -3.56  -2.50  -299.661157    3      15     
iter:  92  12:39:10  -3.37  -2.41  -299.701364    3      18     
iter:  93  12:39:47  -3.23  -2.38  -299.692775    2      18     
iter:  94  12:40:21  -3.21  -2.39  -299.643270    3      17     
iter:  95  12:40:54  -3.52  -2.46  -299.642515    2      14     
iter:  96  12:41:40  -3.66  -2.48  -299.623909    2      12     
iter:  97  12:42:18  -4.14  -2.56  -299.619811    2      11     
iter:  98  12:42:53  -4.28  -2.58  -299.624623    2      12     
iter:  99  12:43:25  -3.87  -2.58  -299.645659    2      14     
iter: 100  12:43:59  -3.33  -2.54  -299.692138    2      17     
iter: 101  12:44:45  -3.28  -2.41  -299.689976    3      16     
iter: 102  12:45:43  -3.31  -2.48  -299.648073    3      14     
iter: 103  12:46:38  -3.60  -2.56  -299.624735    2      14     
iter: 104  12:47:13  -4.05  -2.61  -299.615310    2      11     
iter: 105  12:47:46  -4.05  -2.69  -299.632210    2      11     
iter: 106  12:48:19  -4.13  -2.62  -299.619442    2      12     
iter: 107  12:48:52  -3.95  -2.70  -299.639777    2      14     
iter: 108  12:49:26  -3.64  -2.62  -299.634883    2      15     
iter: 109  12:50:03  -3.60  -2.65  -299.654694    2      16     
iter: 110  12:50:36  -3.67  -2.56  -299.625764    2      15     
iter: 111  12:51:11  -4.02  -2.70  -299.637223    2      14     
iter: 112  12:51:46  -4.13  -2.66  -299.617812    2      13     
iter: 113  12:52:18  -4.29  -2.80  -299.622325    2      8      
iter: 114  12:52:50  -4.14  -2.76  -299.619419    2      7      
iter: 115  12:53:22  -4.10  -2.81  -299.639158    2      14     
iter: 116  12:53:55  -3.76  -2.65  -299.643428    2      16     
iter: 117  12:54:28  -3.71  -2.66  -299.645618    3      15     
iter: 118  12:55:02  -3.63  -2.76  -299.634703    3      16     
iter: 119  12:55:50  -3.81  -2.72  -299.629183    3      14     
iter: 120  12:56:47  -3.79  -2.78  -299.622613    2      12     
iter: 121  12:57:35  -4.37  -2.91  -299.624306    2      10     
iter: 122  12:58:11  -4.44  -2.90  -299.622773    2      12     
iter: 123  12:58:43  -4.59  -2.94  -299.621325    2      9      
iter: 124  12:59:18  -3.79  -3.03  -299.663272    2      15     
iter: 125  13:00:02  -3.72  -2.66  -299.626227    2      15     
iter: 126  13:00:34  -4.06  -2.93  -299.623094    2      11     
iter: 127  13:01:07  -4.38  -3.00  -299.620012    2      9      
iter: 128  13:01:48  -4.75  -3.08  -299.618443    2      9      
iter: 129  13:02:26  -5.16  -3.15  -299.619640    2      4      
iter: 130  13:03:17  -4.88  -3.18  -299.619351    2      7      
iter: 131  13:04:06  -4.67  -3.12  -299.619412    2      7      
iter: 132  13:04:47  -4.80  -3.10  -299.617994    2      6      
iter: 133  13:05:18  -5.29  -3.22  -299.618624    2      5      
iter: 134  13:05:51  -5.08  -3.22  -299.619034    2      6      
iter: 135  13:06:22  -5.33  -3.22  -299.618165    2      4      
iter: 136  13:06:54  -5.41  -3.27  -299.618328    2      4      
iter: 137  13:07:27  -5.01  -3.25  -299.620325    2      7      
iter: 138  13:07:58  -4.83  -3.18  -299.618789    2      6      
iter: 139  13:08:31  -5.34  -3.26  -299.618818    2      5      
iter: 140  13:09:04  -5.08  -3.28  -299.618446    2      6      
iter: 141  13:09:35  -5.09  -3.25  -299.618428    2      4      
iter: 142  13:10:06  -5.48  -3.32  -299.618378    2      4      
iter: 143  13:10:38  -5.49  -3.35  -299.619106    2      4      
iter: 144  13:11:09  -5.01  -3.33  -299.618711    2      5      
iter: 145  13:11:40  -5.29  -3.32  -299.618488    2      5      
iter: 146  13:12:13  -5.00  -3.33  -299.620382    2      5      
iter: 147  13:12:45  -4.76  -3.32  -299.619005    2      5      
iter: 148  13:13:22  -5.01  -3.35  -299.618619    2      6      
iter: 149  13:13:59  -5.40  -3.36  -299.618905    2      4      
iter: 150  13:14:31  -5.03  -3.50  -299.619230    2      5      
iter: 151  13:15:04  -5.16  -3.36  -299.618266    2      5      
iter: 152  13:15:35  -5.31  -3.46  -299.618175    2      4      
iter: 153  13:16:08  -5.20  -3.58  -299.619032    2      4      
iter: 154  13:16:41  -4.84  -3.55  -299.623413    2      9      
iter: 155  13:17:13  -4.88  -3.22  -299.619055    2      7      
iter: 156  13:17:45  -5.44  -3.65  -299.619068    2      5      
iter: 157  13:18:18  -5.59  -3.59  -299.618243    2      3      
iter: 158  13:18:49  -6.01  -3.76  -299.618544    2      3      
iter: 159  13:19:20  -6.06  -3.79  -299.618273    2      3      
iter: 160  13:19:51  -6.28  -3.80  -299.618454    2      3      
iter: 161  13:20:22  -6.08  -3.83  -299.618620    2      4      
iter: 162  13:20:53  -5.66  -3.78  -299.618349    2      3      
iter: 163  13:21:24  -5.63  -3.75  -299.618764    2      3      
iter: 164  13:21:57  -6.09  -3.84  -299.618417    2      3      
iter: 165  13:22:33  -6.38  -3.86  -299.618466    2      3      
iter: 166  13:23:11  -6.64  -3.89  -299.618492    2      2      
iter: 167  13:23:48  -6.53  -3.96  -299.618323    2      3      
iter: 168  13:24:22  -6.34  -3.95  -299.618590    2      3      
iter: 169  13:24:59  -5.93  -4.05  -299.618362    2      3      
iter: 170  13:25:39  -5.89  -3.88  -299.618466    2      3      
iter: 171  13:26:21  -6.10  -3.94  -299.618621    2      4      
iter: 172  13:27:05  -5.96  -4.03  -299.618658    2      4      
iter: 173  13:27:48  -6.18  -4.09  -299.618256    2      4      
iter: 174  13:28:31  -6.20  -3.95  -299.618558    2      3      
iter: 175  13:29:09  -7.01  -4.28  -299.618405    2      2      
iter: 176  13:29:44  -6.74  -4.36  -299.618587    2      3      
iter: 177  13:30:25  -6.90  -4.23  -299.618518    2      2      
iter: 178  13:31:15  -6.72  -4.28  -299.618736    2      2      
iter: 179  13:31:54  -6.56  -4.48  -299.618337    2      3      
iter: 180  13:32:28  -6.62  -4.36  -299.618630    2      2      
iter: 181  13:33:14  -6.76  -4.37  -299.618386    2      2      
iter: 182  13:34:02  -7.22  -4.46  -299.618504    2      2      
iter: 183  13:34:48  -7.58  -4.64  -299.618518    2      2      

Converged after 183 iterations.

Dipole moment: (-28.974146, -7.311940, 2.462350) |e|*Ang

Energy contributions relative to reference atoms: (reference = -648925.267931)

Kinetic:       +213.638289
Potential:     -245.657870
External:        +0.000000
XC:            -280.086019
Entropy (-ST):   -2.811774
Local:          +13.892969
--------------------------
Free energy:   -301.024405
Extrapolated:  -299.618518

Fermi level: 1.58905

 Band  Eigenvalues  Occupancy
    0    -22.23306    2.00000
    1    -22.20993    2.00000
    2    -22.13006    2.00000
    3    -22.10582    2.00000
    4    -22.02447    2.00000
    5    -21.99658    2.00000
    6    -21.95828    2.00000
    7    -21.93948    2.00000
    8    -21.87149    2.00000
    9    -21.86897    2.00000
   10    -21.82669    2.00000
   11    -21.73701    2.00000
   12    -21.69297    2.00000
   13    -21.65045    2.00000
   14    -21.63210    2.00000
   15    -21.58611    2.00000
   16    -21.52191    2.00000
   17    -21.50032    2.00000
   18    -21.49421    2.00000
   19    -21.46360    2.00000
   20    -21.44442    2.00000
   21    -21.43221    2.00000
   22    -21.40790    2.00000
   23    -21.38026    2.00000
   24    -21.35667    2.00000
   25    -21.33227    2.00000
   26    -21.30352    2.00000
   27    -21.28539    2.00000
   28    -21.17927    2.00000
   29    -21.14215    2.00000
   30    -21.12661    2.00000
   31    -20.98596    2.00000
   32    -17.22065    2.00000
   33    -17.06713    2.00000
   34    -17.00801    2.00000
   35    -16.99652    2.00000
   36     -5.38370    2.00000
   37     -5.37079    2.00000
   38     -5.29023    2.00000
   39     -5.20425    2.00000
   40     -5.17188    2.00000
   41     -5.14514    2.00000
   42     -5.13208    2.00000
   43     -5.08644    2.00000
   44     -4.87014    2.00000
   45     -4.78648    2.00000
   46     -4.72171    2.00000
   47     -4.62129    2.00000
   48     -4.60433    2.00000
   49     -4.54366    2.00000
   50     -4.51802    2.00000
   51     -4.50442    2.00000
   52     -4.48582    2.00000
   53     -4.47313    2.00000
   54     -4.45208    2.00000
   55     -4.43158    2.00000
   56     -4.38893    2.00000
   57     -4.36237    2.00000
   58     -4.34701    2.00000
   59     -4.33646    2.00000
   60     -4.32166    2.00000
   61     -4.30260    2.00000
   62     -4.28573    2.00000
   63     -4.25253    2.00000
   64     -4.23820    2.00000
   65     -4.21109    2.00000
   66     -4.20253    2.00000
   67     -4.14119    2.00000
   68     -4.10631    2.00000
   69     -4.08891    2.00000
   70     -4.06501    2.00000
   71     -4.03366    2.00000
   72     -4.02007    2.00000
   73     -4.00188    2.00000
   74     -3.98127    2.00000
   75     -3.95693    2.00000
   76     -3.92900    2.00000
   77     -3.90936    2.00000
   78     -3.89822    2.00000
   79     -3.84744    2.00000
   80     -3.81735    2.00000
   81     -3.77569    2.00000
   82     -3.66815    2.00000
   83     -3.63456    2.00000
   84     -3.56436    2.00000
   85     -3.55493    2.00000
   86     -3.51235    2.00000
   87     -3.47946    2.00000
   88     -3.45832    2.00000
   89     -3.43352    2.00000
   90     -3.36896    2.00000
   91     -3.34904    2.00000
   92     -3.31184    2.00000
   93     -3.24957    2.00000
   94     -3.20977    2.00000
   95     -3.19725    2.00000
   96     -3.15842    2.00000
   97     -3.08433    2.00000
   98     -3.05651    2.00000
   99     -3.02848    2.00000
  100     -3.00266    2.00000
  101     -2.97453    2.00000
  102     -2.95013    2.00000
  103     -2.93846    2.00000
  104     -2.90367    2.00000
  105     -2.87148    2.00000
  106     -2.85615    2.00000
  107     -2.82615    2.00000
  108     -2.80152    2.00000
  109     -2.78802    2.00000
  110     -2.76425    2.00000
  111     -2.74939    2.00000
  112     -2.71716    2.00000
  113     -2.68247    2.00000
  114     -2.61524    2.00000
  115     -2.58510    2.00000
  116     -2.56664    2.00000
  117     -2.51473    2.00000
  118     -2.49980    2.00000
  119     -2.47921    2.00000
  120     -2.45194    2.00000
  121     -2.42666    2.00000
  122     -2.41085    2.00000
  123     -2.37842    2.00000
  124     -2.35294    2.00000
  125     -2.32802    2.00000
  126     -2.29664    2.00000
  127     -2.25721    2.00000
  128     -2.24892    2.00000
  129     -2.21958    2.00000
  130     -2.19558    2.00000
  131     -2.18481    2.00000
  132     -2.17539    2.00000
  133     -2.12969    2.00000
  134     -2.10065    2.00000
  135     -2.06442    2.00000
  136     -2.03957    2.00000
  137     -1.97946    2.00000
  138     -1.94182    2.00000
  139     -1.92428    2.00000
  140     -1.89550    2.00000
  141     -1.87187    2.00000
  142     -1.83686    2.00000
  143     -1.77527    2.00000
  144      0.82055    1.99908
  145      0.83035    1.99899
  146      0.86166    1.99861
  147      0.88416    1.99826
  148      0.89883    1.99799
  149      0.91441    1.99765
  150      0.96138    1.99625
  151      0.96687    1.99604
  152      0.99225    1.99489
  153      1.01232    1.99376
  154      1.02880    1.99265
  155      1.03567    1.99213
  156      1.04256    1.99157
  157      1.04775    1.99112
  158      1.08130    1.98761
  159      1.08630    1.98697
  160      1.13659    1.97855
  161      1.15989    1.97300
  162      1.17152    1.96972
  163      1.17867    1.96752
  164      1.20240    1.95899
  165      1.21477    1.95372
  166      1.22150    1.95058
  167      1.22644    1.94814
  168      1.24291    1.93914
  169      1.24655    1.93695
  170      1.25186    1.93362
  171      1.26785    1.92256
  172      1.27069    1.92042
  173      1.27464    1.91735
  174      1.29222    1.90224
  175      1.30237    1.89235
  176      1.33003    1.86045
  177      1.37565    1.78831
  178      1.38221    1.77557
  179      1.38768    1.76444
  180      1.40941    1.71542
  181      1.42737    1.66869
  182      1.45289    1.59201
  183      1.45564    1.58301
  184      1.46351    1.55646
  185      1.48199    1.48940
  186      1.51838    1.33931
  187      1.53863    1.24687
  188      1.58879    1.00129
  189      1.60884    0.90134
  190      1.62443    0.82492
  191      1.67536    0.59335
  192      1.69143    0.52855
  193      1.72558    0.40676
  194      1.74654    0.34303
  195      1.75924    0.30842
  196      1.81705    0.18558
  197      1.85481    0.13104
  198      1.87825    0.10510
  199      1.89349    0.09091
  200      1.93728    0.05964
  201      1.94460    0.05554
  202      1.95612    0.04965
  203      2.01116    0.02894
  204      2.12708    0.00917
  205      2.14047    0.00803
  206      2.20324    0.00429
  207      2.24197    0.00292
  208      2.29574    0.00170
  209      2.44646    0.00038
  210      2.45460    0.00035
  211      2.49449    0.00023
  212      2.52140    0.00018
  213      2.54610    0.00014
  214      2.60305    0.00008
  215      2.71523    0.00003
  216      2.73596    0.00002
  217      2.75710    0.00002
  218      2.83417    0.00001
  219      2.85577    0.00001
  220      2.87764    0.00001
  221      2.92532    0.00000
  222      2.99755    0.00000
  223      3.04028    0.00000
  224      4.91444    0.00000
  225      5.74385    0.00000
  226      6.20907    0.00000
  227      6.79693    0.00000
  228      7.38058    0.00000
  229      7.68738    0.00000
  230      7.76286    0.00000
  231      7.96020    0.00000
  232      8.24986    0.00000
  233      8.48914    0.00000
  234      8.60147    0.00000
  235      8.90816    0.00000
  236      9.88864    0.00000
  237     10.02296    0.00000
  238     10.07383    0.00000
  239     10.14534    0.00000
  240     10.44602    0.00000
  241     10.73564    0.00000
  242     10.80316    0.00000
  243     10.88167    0.00000
  244     10.94318    0.00000
  245     11.00972    0.00000
  246     11.03166    0.00000
  247     11.24680    0.00000
  248     11.29889    0.00000
  249     11.41371    0.00000
  250     11.53870    0.00000
  251     11.63504    0.00000
  252     11.74063    0.00000
  253     11.84384    0.00000
  254     11.88105    0.00000
  255     11.92511    0.00000
  256     12.04031    0.00000
  257     12.05932    0.00000
  258     12.20536    0.00000
  259     12.33431    0.00000
  260     12.36717    0.00000
  261     12.39069    0.00000
  262     12.45591    0.00000
  263     12.49186    0.00000
  264     12.53843    0.00000
  265     12.59117    0.00000
  266     12.62105    0.00000
  267     12.63590    0.00000
  268     12.67341    0.00000
  269     12.76774    0.00000
  270     12.86609    0.00000
  271     13.01016    0.00000
  272     13.09262    0.00000
  273     13.15658    0.00000
  274     13.25975    0.00000
  275     13.31531    0.00000
  276     13.37158    0.00000
  277     13.37897    0.00000
  278     13.49037    0.00000
  279     13.53839    0.00000
  280     13.69074    0.00000
  281     13.99963    0.00000
  282     14.09085    0.00000
  283     14.22444    0.00000
  284     14.42149    0.00000
  285     14.44308    0.00000
  286     14.47325    0.00000
  287     14.54135    0.00000

Timing:                              incl.     excl.
-----------------------------------------------------------
Hamiltonian:                         5.178     0.000   0.0% |
 Atomic:                             2.286     0.005   0.0% |
  XC Correction:                     2.281     2.281   0.0% |
 Calculate atomic Hamiltonians:      0.030     0.030   0.0% |
 Communicate:                        0.000     0.000   0.0% |
 Hartree integrate/restrict:         0.023     0.023   0.0% |
 Initialize Hamiltonian:             0.000     0.000   0.0% |
 Poisson:                            2.186     2.186   0.0% |
 XC 3D grid:                         0.645     0.645   0.0% |
 vbar:                               0.006     0.006   0.0% |
LCAO initialization:                21.482     0.235   0.0% |
 LCAO eigensolver:                   2.106     0.000   0.0% |
  Calculate projections:             0.023     0.023   0.0% |
  DenseAtomicCorrection:             0.022     0.022   0.0% |
  Distribute overlap matrix:         0.000     0.000   0.0% |
  Orbital Layouts:                   0.060     0.060   0.0% |
  Potential matrix:                  2.000     2.000   0.0% |
 LCAO to grid:                      17.967    17.967   0.3% |
 Set positions (LCAO WFS):           1.174     0.000   0.0% |
  Basic WFS set positions:           0.001     0.001   0.0% |
  Basis functions set positions:     0.000     0.000   0.0% |
  TCI: Calculate S, T, P:            1.172     1.172   0.0% |
SCF-cycle:                        6791.409     0.141   0.0% |
 Davidson:                        5834.549   987.175  14.5% |-----|
  Apply hamiltonian:               133.346   133.346   2.0% ||
  Subspace diag:                  1670.755     0.049   0.0% |
   calc_h_matrix:                  653.481   520.271   7.6% |--|
    Apply hamiltonian:             133.209   133.209   2.0% ||
   diagonalize:                      4.216     4.216   0.1% |
   rotate_psi:                    1013.009  1013.009  14.9% |-----|
  calc. matrices:                 2005.845  1871.962  27.5% |----------|
   Apply hamiltonian:              133.883   133.883   2.0% ||
  diagonalize:                      18.675    18.675   0.3% |
  rotate_psi:                     1018.753  1018.753  14.9% |-----|
 Density:                           22.254     0.005   0.0% |
  Atomic density matrices:           1.148     1.148   0.0% |
  Mix:                              10.417    10.417   0.2% |
  Multipole moments:                 0.223     0.223   0.0% |
  Pseudo density:                   10.461    10.456   0.2% |
   Symmetrize density:               0.004     0.004   0.0% |
 Hamiltonian:                      928.733     0.026   0.0% |
  Atomic:                          446.224     0.928   0.0% |
   XC Correction:                  445.296   445.296   6.5% |--|
  Calculate atomic Hamiltonians:     6.467     6.467   0.1% |
  Communicate:                       0.002     0.002   0.0% |
  Hartree integrate/restrict:        3.906     3.906   0.1% |
  Poisson:                         346.023   346.023   5.1% |-|
  XC 3D grid:                      124.779   124.779   1.8% ||
  vbar:                              1.307     1.307   0.0% |
 Orthonormalize:                     5.733     0.000   0.0% |
  calc_s_matrix:                     1.593     1.593   0.0% |
  inverse-cholesky:                  0.004     0.004   0.0% |
  projections:                       1.500     1.500   0.0% |
  rotate_psi_s:                      2.636     2.636   0.0% |
Set symmetry:                        0.001     0.001   0.0% |
Other:                               1.306     1.306   0.0% |
-----------------------------------------------------------
Total:                                      6819.375 100.0%

Memory usage: 1.07 GiB
Date: Wed Mar 27 13:34:48 2019
