
  ___ ___ ___ _ _ _  
 |   |   |_  | | | | 
 | | | | | . | | | | 
 |__ |  _|___|_____|  1.4.0
 |___|_|             

User:   murakami@tssm1.eng.shizuoka.ac.jp
Date:   Tue Mar 26 18:17:55 2019
Arch:   x86_64
Pid:    31289
Python: 3.6.5
gpaw:   /home/murakami/.local/lib/python3.6/site-packages/gpaw
_gpaw:  /home/murakami/.local/lib/python3.6/site-packages/
        _gpaw.cpython-36m-x86_64-linux-gnu.so
ase:    /home/murakami/.local/lib/python3.6/site-packages/ase (version 3.16.2)
numpy:  /home/murakami/.local/lib/python3.6/site-packages/numpy (version 1.15.2)
scipy:  /home/murakami/.local/lib/python3.6/site-packages/scipy (version 1.1.0)
units:  Angstrom and eV
cores:  1

Input parameters:
  kpts: {size: (1, 1, 1)}
  maxiter: 300
  xc: PBE

System changes: positions, numbers, cell, pbc, initial_charges, initial_magmoms 

Initialize ...

Fe-setup:
  name: Iron
  id: 37abbd8d6c3c35915a9b583b742da910
  Z: 26
  valence: 8
  core: 18
  charge: 0.0
  file: /home/murakami/Public/gpaw-setups-0.9.20000/Fe.PBE.gz
  cutoffs: 1.06(comp), 2.06(filt), 2.67(core), lmax=2
  valence states:
                energy  radius
    4s(2.00)    -5.291   1.164
    4p(0.00)    -1.326   1.058
    3d(6.00)    -7.505   1.058
    *s          21.920   1.164
    *p          25.885   1.058
    *d          19.706   1.058

  Using partial waves for Fe as LCAO basis

O-setup:
  name: Oxygen
  id: 32ecd46bf208036f09c70b0ec9a88b78
  Z: 8
  valence: 6
  core: 2
  charge: 0.0
  file: /home/murakami/Public/gpaw-setups-0.9.20000/O.PBE.gz
  cutoffs: 0.67(comp), 1.17(filt), 0.83(core), lmax=2
  valence states:
                energy  radius
    2s(2.00)   -23.961   0.688
    2p(4.00)    -9.029   0.598
    *s           3.251   0.688
    *p          18.182   0.598
    *d           0.000   0.619

  Using partial waves for O as LCAO basis

F-setup:
  name: Fluorine
  id: 9cd46ba2a61e170ad72278be75b55cc0
  Z: 9
  valence: 7
  core: 2
  charge: 0.0
  file: /home/murakami/Public/gpaw-setups-0.9.20000/F.PBE.gz
  cutoffs: 0.64(comp), 1.14(filt), 0.74(core), lmax=2
  valence states:
                energy  radius
    2s(2.00)   -29.898   0.635
    2p(5.00)   -11.110   0.635
    *s          -2.687   0.635
    *p          16.102   0.635
    *d           0.000   0.635

  Using partial waves for F as LCAO basis

Reference energy: -319034.472395

Spin-paired calculation

Occupation numbers:
  Fermi-Dirac: width=0.1000 eV

Convergence criteria:
  Maximum total energy change: 0.0005 eV / electron
  Maximum integral of absolute density change: 0.0001 electrons
  Maximum integral of absolute eigenstate change: 4e-08 eV^2
  Maximum number of iterations: 300

Symmetries present (total): 1

  ( 1  0  0)
  ( 0  1  0)
  ( 0  0  1)

1 k-point (Gamma)
1 k-point in the irreducible part of the Brillouin zone
       k-points in crystal coordinates                weights
   0:     0.00000000    0.00000000    0.00000000          1/1

Wave functions: Uniform real-space grid
  Kinetic energy operator: 8*3+1=25 point O(h^6) finite-difference Laplacian
  ScaLapack parameters: grid=1x1, blocksize=None 

Eigensolver
   Davidson(niter=1, smin=None, normalize=True) 

Densities:
  Coarse grid: 28*24*52 grid
  Fine grid: 56*48*104 grid
  Total Charge: 0.000000 

Density mixing:
  Method: separate
  Backend: pulay
  Linear mixing parameter: 0.05
  Mixing with 5 old densities
  Damping of long wave oscillations: 50 

Hamiltonian:
  XC and Coulomb potentials evaluated on a 56*48*104 grid
  Using the PBE Exchange-Correlation functional
  Interpolation: tri-quintic (5. degree polynomial)
  Poisson solver: Jacobi solver with 4 multi-grid levels
    Coarsest grid: 7 x 6 x 13 points
    Stencil: 8*3+1=25 point O(h^6) finite-difference Laplacian
    Max iterations: 1000
    Tolerance: 2.000000e-10 

Memory estimate:
  Process memory now: 317.30 MiB
  Calculator: 140.85 MiB
    Density: 46.81 MiB
      Arrays: 6.93 MiB
      Localized functions: 37.21 MiB
      Mixer: 2.67 MiB
    Hamiltonian: 12.52 MiB
      Arrays: 4.53 MiB
      XC: 0.00 MiB
      Poisson: 5.17 MiB
      vbar: 2.82 MiB
    Wavefunctions: 81.52 MiB
      Arrays psit_nG: 36.26 MiB
      Eigensolver: 39.01 MiB
      Projections: 0.37 MiB
      Projectors: 5.89 MiB

Total number of cores used: 1

Number of atoms: 24
Number of atomic orbitals: 136
Number of bands in calculation: 136
Bands to converge: occupied states only
Number of valence electrons: 174

... initialized

Initializing position-dependent things.

Density initialized from atomic densities
Creating initial wave functions:
  136 bands from LCAO basis set

                                
                                
                                
                                
                Fe              
                    O           
                     Fe         
          FF   F                
                   FeF          
           Fe                   
           F      F             
             FF       Fe        
              Fe                
                                
            Fe F FO   F         
                                
       F          Fe            
           F      F             
                                
                                
                                
                                
                                

Positions:
   0 Fe     1.404678    1.189211    7.926783    ( 0.0000,  0.0000,  0.0000)
   1 Fe     1.404678    3.596231    2.416786    ( 0.0000,  0.0000,  0.0000)
   2 Fe     2.928041    1.172318    5.118915    ( 0.0000,  0.0000,  0.0000)
   3 Fe     2.928041    3.613124   10.463944    ( 0.0000,  0.0000,  0.0000)
   4 Fe     4.286585    1.106753    2.287094    ( 0.0000,  0.0000,  0.0000)
   5 Fe     4.286585    3.678689    7.662739    ( 0.0000,  0.0000,  0.0000)
   6 Fe     5.632834    1.155072   10.063461    ( 0.0000,  0.0000,  0.0000)
   7 Fe     5.619464    3.630370    4.623336    ( 0.0000,  0.0000,  0.0000)
   8 O      4.427813    0.279843    3.926077    ( 0.0000,  0.0000,  0.0000)
   9 O      4.427813    4.505599    9.368060    ( 0.0000,  0.0000,  0.0000)
  10 F      0.077913    0.275431    1.978610    ( 0.0000,  0.0000,  0.0000)
  11 F      0.077913    4.510011    7.420593    ( 0.0000,  0.0000,  0.0000)
  12 F      1.263951    2.150774    6.036975    ( 0.0000,  0.0000,  0.0000)
  13 F      1.263951    2.634668    0.594992    ( 0.0000,  0.0000,  0.0000)
  14 F      1.611313    0.247632    9.811515    ( 0.0000,  0.0000,  0.0000)
  15 F      1.565157    4.537810    4.375945    ( 0.0000,  0.0000,  0.0000)
  16 F      2.740469    2.170342    3.056782    ( 0.0000,  0.0000,  0.0000)
  17 F      2.740469    2.615100    8.498765    ( 0.0000,  0.0000,  0.0000)
  18 F      2.971712    0.170362    6.924657    ( 0.0000,  0.0000,  0.0000)
  19 F      2.971712    4.615080    1.482674    ( 0.0000,  0.0000,  0.0000)
  20 F      4.059989    2.119879    0.427296    ( 0.0000,  0.0000,  0.0000)
  21 F      4.108090    2.665395    5.862595    ( 0.0000,  0.0000,  0.0000)
  22 F      5.536006    2.184578    8.151270    ( 0.0000,  0.0000,  0.0000)
  23 F      5.536006    2.600864    2.709287    ( 0.0000,  0.0000,  0.0000)

Unit cell:
           periodic     x           y           z      points  spacing
  1. axis:    yes    5.687095    0.000000   -0.790267    28     0.2031
  2. axis:    yes    0.000000    4.785442    0.000000    24     0.1994
  3. axis:    yes    0.000000    0.000000   10.883966    52     0.2073

  Lengths:   5.741739   4.785442  10.883966
  Angles:   90.000000  97.911044  90.000000

Effective grid spacing dv^(1/3) = 0.2039

                     log10-error:    total        iterations:
           time      wfs    density  energy       fermi  poisson
iter:   1  18:18:12  +1.57   +inf  -150.066000    3      17     
iter:   2  18:18:17  +0.21   +inf  -150.709304    3             
iter:   3  18:18:20  -0.39   +inf  -150.893906    2             
iter:   4  18:18:27  -0.63  -1.14  -149.154555    3      8      
iter:   5  18:18:33  -0.41  -1.18  -157.664956    3      14     
iter:   6  18:18:40  -0.31  -1.17  -148.806405    3      15     
iter:   7  18:18:47  -0.67  -1.35  -146.255553    4      14     
iter:   8  18:18:55  -1.39  -1.42  -145.919436    4      11     
iter:   9  18:18:59  -1.51  -1.43  -146.138913    4      12     
iter:  10  18:19:05  -1.49  -1.43  -146.673953    4      14     
iter:  11  18:19:10  -1.29  -1.40  -146.771470    3      13     
iter:  12  18:19:15  -1.28  -1.43  -145.875367    3      12     
iter:  13  18:19:20  -1.64  -1.48  -145.564841    4      11     
iter:  14  18:19:25  -1.59  -1.53  -145.937746    4      10     
iter:  15  18:19:31  -1.44  -1.54  -146.363089    3      13     
iter:  16  18:19:36  -1.50  -1.50  -147.533320    4      14     
iter:  17  18:19:41  -1.44  -1.45  -145.492618    4      14     
iter:  18  18:19:46  -1.36  -1.72  -147.500219    4      12     
iter:  19  18:19:51  -1.06  -1.58  -146.238992    4      13     
iter:  20  18:19:57  -1.53  -1.71  -145.761781    3      9      
iter:  21  18:20:04  -1.74  -1.77  -145.686405    4      12     
iter:  22  18:20:09  -1.90  -1.78  -145.855925    4      12     
iter:  23  18:20:14  -1.83  -1.81  -145.576746    4      13     
iter:  24  18:20:19  -2.01  -1.84  -145.777798    3      12     
iter:  25  18:20:24  -1.95  -1.90  -145.486420    3      11     
iter:  26  18:20:29  -2.35  -2.00  -145.546899    3      8      
iter:  27  18:20:33  -1.99  -2.08  -145.802979    3      11     
iter:  28  18:20:38  -1.99  -1.95  -145.521482    3      12     
iter:  29  18:20:43  -2.09  -2.15  -145.973244    2      13     
iter:  30  18:20:48  -2.04  -1.89  -145.487973    3      12     
iter:  31  18:20:53  -2.50  -2.29  -145.483669    3      8      
iter:  32  18:20:58  -2.71  -2.30  -145.433941    2      7      
iter:  33  18:21:02  -2.99  -2.33  -145.437135    3      8      
iter:  34  18:21:07  -2.81  -2.40  -145.426014    3      7      
iter:  35  18:21:12  -2.73  -2.41  -145.493977    3      9      
iter:  36  18:21:16  -2.77  -2.30  -145.442780    3      10     
iter:  37  18:21:21  -2.88  -2.41  -145.409014    3      8      
iter:  38  18:21:26  -2.63  -2.56  -145.472531    2      8      
iter:  39  18:21:31  -2.94  -2.41  -145.415690    3      8      
iter:  40  18:21:35  -3.19  -2.67  -145.423417    2      7      
iter:  41  18:21:40  -3.32  -2.64  -145.415961    3      7      
iter:  42  18:21:47  -3.46  -2.66  -145.412463    2      8      
iter:  43  18:21:51  -3.79  -2.73  -145.411565    3      6      
iter:  44  18:21:57  -3.36  -2.82  -145.409916    2      6      
iter:  45  18:22:02  -3.34  -2.65  -145.408915    3      7      
iter:  46  18:22:08  -3.59  -2.87  -145.408423    2      6      
iter:  47  18:22:15  -3.58  -2.79  -145.409248    3      6      
iter:  48  18:22:22  -3.63  -2.93  -145.410574    3      8      
iter:  49  18:22:28  -3.89  -2.82  -145.402369    3      6      
iter:  50  18:22:35  -4.29  -3.02  -145.406921    3      5      
iter:  51  18:22:41  -4.01  -3.03  -145.400929    3      6      
iter:  52  18:22:48  -4.18  -3.04  -145.404809    3      5      
iter:  53  18:22:54  -4.18  -3.07  -145.400740    2      5      
iter:  54  18:23:00  -3.94  -3.12  -145.405797    3      7      
iter:  55  18:23:05  -3.77  -2.94  -145.405575    3      7      
iter:  56  18:23:11  -4.27  -3.09  -145.400937    2      4      
iter:  57  18:23:16  -4.38  -3.21  -145.405444    2      5      
iter:  58  18:23:22  -4.59  -3.21  -145.402013    2      4      
iter:  59  18:23:28  -4.78  -3.31  -145.403310    2      4      
iter:  60  18:23:34  -5.07  -3.35  -145.402867    2      4      
iter:  61  18:23:39  -4.48  -3.37  -145.401666    2      5      
iter:  62  18:23:44  -4.45  -3.22  -145.403639    2      4      
iter:  63  18:23:49  -4.55  -3.38  -145.400667    2      5      
iter:  64  18:23:56  -4.51  -3.29  -145.403086    2      4      
iter:  65  18:24:02  -4.79  -3.54  -145.401976    2      4      
iter:  66  18:24:07  -5.20  -3.47  -145.401969    2      4      
iter:  67  18:24:11  -5.39  -3.61  -145.402579    2      4      
iter:  68  18:24:16  -5.21  -3.67  -145.401565    2      3      
iter:  69  18:24:21  -5.53  -3.69  -145.402051    2      4      
iter:  70  18:24:25  -5.27  -3.87  -145.401159    2      3      
iter:  71  18:24:30  -5.36  -3.73  -145.401590    2      4      
iter:  72  18:24:34  -5.97  -4.20  -145.401893    2      2      
iter:  73  18:24:39  -6.22  -4.17  -145.401461    2      2      
iter:  74  18:24:43  -6.56  -4.32  -145.401688    2      2      
iter:  75  18:24:48  -6.48  -4.29  -145.401796    2      2      
iter:  76  18:24:52  -6.46  -4.27  -145.401531    2      2      
iter:  77  18:24:56  -6.56  -4.31  -145.402295    2      2      
iter:  78  18:25:01  -6.31  -4.34  -145.401793    2      3      
iter:  79  18:25:05  -6.41  -4.41  -145.402300    2      2      
iter:  80  18:25:10  -6.54  -4.44  -145.401889    2      3      
iter:  81  18:25:14  -6.78  -4.63  -145.401964    2      2      
iter:  82  18:25:19  -6.96  -4.62  -145.402147    2      2      
iter:  83  18:25:23  -7.42  -4.74  -145.402017    2      1      

Converged after 83 iterations.

Dipole moment: (-1.119178, 2.950441, -2.177506) |e|*Ang

Energy contributions relative to reference atoms: (reference = -319034.472395)

Kinetic:       +122.248444
Potential:     -135.066684
External:        +0.000000
XC:            -139.509692
Entropy (-ST):   -1.201596
Local:           +7.526713
--------------------------
Free energy:   -146.002814
Extrapolated:  -145.402017

Fermi level: 3.79395

 Band  Eigenvalues  Occupancy
    0    -20.78304    2.00000
    1    -20.59814    2.00000
    2    -20.48101    2.00000
    3    -20.31905    2.00000
    4    -20.27342    2.00000
    5    -20.20141    2.00000
    6    -20.14401    2.00000
    7    -20.10843    2.00000
    8    -20.10096    2.00000
    9    -20.03761    2.00000
   10    -20.00637    2.00000
   11    -19.91477    2.00000
   12    -19.81203    2.00000
   13    -19.77669    2.00000
   14    -14.40716    2.00000
   15    -14.28615    2.00000
   16     -4.21532    2.00000
   17     -3.86132    2.00000
   18     -3.38658    2.00000
   19     -3.30356    2.00000
   20     -3.28146    2.00000
   21     -3.20293    2.00000
   22     -3.05460    2.00000
   23     -2.94096    2.00000
   24     -2.89885    2.00000
   25     -2.86622    2.00000
   26     -2.69044    2.00000
   27     -2.66456    2.00000
   28     -2.61402    2.00000
   29     -2.55371    2.00000
   30     -2.52272    2.00000
   31     -2.47568    2.00000
   32     -2.41183    2.00000
   33     -2.34638    2.00000
   34     -2.32773    2.00000
   35     -2.27432    2.00000
   36     -2.22437    2.00000
   37     -2.18793    2.00000
   38     -2.11470    2.00000
   39     -2.06292    2.00000
   40     -2.01176    2.00000
   41     -1.99152    2.00000
   42     -1.90060    2.00000
   43     -1.82284    2.00000
   44     -1.79522    2.00000
   45     -1.66545    2.00000
   46     -1.40728    2.00000
   47     -1.33218    2.00000
   48     -1.25329    2.00000
   49     -1.21516    2.00000
   50     -1.13762    2.00000
   51     -1.04874    2.00000
   52     -1.01142    2.00000
   53     -0.93662    2.00000
   54     -0.85712    2.00000
   55     -0.73016    2.00000
   56     -0.66456    2.00000
   57     -0.59972    2.00000
   58     -0.56923    2.00000
   59     -0.39350    2.00000
   60     -0.21394    2.00000
   61     -0.15939    2.00000
   62      0.61071    2.00000
   63      0.71899    2.00000
   64      3.00314    1.99926
   65      3.02135    1.99912
   66      3.08268    1.99837
   67      3.09538    1.99815
   68      3.11036    1.99785
   69      3.13144    1.99735
   70      3.16750    1.99620
   71      3.20646    1.99440
   72      3.24149    1.99206
   73      3.24954    1.99139
   74      3.33051    1.98076
   75      3.33696    1.97949
   76      3.36358    1.97333
   77      3.37465    1.97025
   78      3.39184    1.96477
   79      3.46094    1.93089
   80      3.47764    1.91885
   81      3.49725    1.90212
   82      3.54111    1.85223
   83      3.58402    1.78168
   84      3.67119    1.54681
   85      3.69014    1.47699
   86      3.73001    1.30926
   87      3.81620    0.88919
   88      3.83399    0.80246
   89      3.94604    0.35867
   90      4.04821    0.14585
   91      4.07715    0.11124
   92      4.13688    0.06279
   93      4.17816    0.04200
   94      4.25982    0.01878
   95      4.28093    0.01523
   96      4.50664    0.00161
   97      4.61131    0.00056
   98      4.96041    0.00002
   99      5.07769    0.00001
  100      5.13542    0.00000
  101      5.14882    0.00000
  102      5.24044    0.00000
  103      5.41610    0.00000
  104      6.31987    0.00000
  105      8.09175    0.00000
  106      8.59539    0.00000
  107     11.08998    0.00000
  108     11.41778    0.00000
  109     11.51264    0.00000
  110     11.63780    0.00000
  111     11.88883    0.00000
  112     12.06627    0.00000
  113     12.18833    0.00000
  114     12.34667    0.00000
  115     12.96516    0.00000
  116     13.32150    0.00000
  117     13.40693    0.00000
  118     13.72563    0.00000
  119     14.04752    0.00000
  120     14.69351    0.00000
  121     15.07928    0.00000
  122     15.18304    0.00000
  123     15.28668    0.00000
  124     15.47162    0.00000
  125     15.88916    0.00000
  126     15.94965    0.00000
  127     15.99340    0.00000
  128     16.02381    0.00000
  129     16.08291    0.00000
  130     16.20012    0.00000
  131     16.24544    0.00000
  132     16.35856    0.00000
  133     16.40494    0.00000
  134     16.57567    0.00000
  135     16.74109    0.00000

Timing:                              incl.     excl.
-----------------------------------------------------------
Hamiltonian:                         2.263     0.000   0.0% |
 Atomic:                             1.146     0.003   0.0% |
  XC Correction:                     1.144     1.144   0.3% |
 Calculate atomic Hamiltonians:      0.013     0.013   0.0% |
 Communicate:                        0.000     0.000   0.0% |
 Hartree integrate/restrict:         0.007     0.007   0.0% |
 Initialize Hamiltonian:             0.000     0.000   0.0% |
 Poisson:                            0.817     0.817   0.2% |
 XC 3D grid:                         0.277     0.277   0.1% |
 vbar:                               0.002     0.002   0.0% |
LCAO initialization:                 8.319     0.230   0.1% |
 LCAO eigensolver:                   1.262     0.000   0.0% |
  Calculate projections:             0.003     0.003   0.0% |
  DenseAtomicCorrection:             0.003     0.003   0.0% |
  Distribute overlap matrix:         0.000     0.000   0.0% |
  Orbital Layouts:                   0.009     0.009   0.0% |
  Potential matrix:                  1.247     1.247   0.3% |
 LCAO to grid:                       5.987     5.987   1.3% ||
 Set positions (LCAO WFS):           0.839     0.000   0.0% |
  Basic WFS set positions:           0.001     0.001   0.0% |
  Basis functions set positions:     0.000     0.000   0.0% |
  TCI: Calculate S, T, P:            0.838     0.838   0.2% |
SCF-cycle:                         436.549     0.057   0.0% |
 Davidson:                         285.059    83.838  18.7% |------|
  Apply hamiltonian:                10.133    10.133   2.3% ||
  Subspace diag:                    69.129     0.023   0.0% |
   calc_h_matrix:                   29.066    18.927   4.2% |-|
    Apply hamiltonian:              10.139    10.139   2.3% ||
   diagonalize:                      0.366     0.366   0.1% |
   rotate_psi:                      39.674    39.674   8.9% |---|
  calc. matrices:                   80.892    70.915  15.8% |-----|
   Apply hamiltonian:                9.977     9.977   2.2% ||
  diagonalize:                       1.548     1.548   0.3% |
  rotate_psi:                       39.519    39.519   8.8% |---|
 Density:                            2.733     0.004   0.0% |
  Atomic density matrices:           0.193     0.193   0.0% |
  Mix:                               1.816     1.816   0.4% |
  Multipole moments:                 0.047     0.047   0.0% |
  Pseudo density:                    0.672     0.671   0.1% |
   Symmetrize density:               0.001     0.001   0.0% |
 Hamiltonian:                      147.619     0.009   0.0% |
  Atomic:                           97.878     0.249   0.1% |
   XC Correction:                   97.629    97.629  21.8% |--------|
  Calculate atomic Hamiltonians:     1.277     1.277   0.3% |
  Communicate:                       0.001     0.001   0.0% |
  Hartree integrate/restrict:        0.623     0.623   0.1% |
  Poisson:                          27.786    27.786   6.2% |-|
  XC 3D grid:                       19.822    19.822   4.4% |-|
  vbar:                              0.221     0.221   0.0% |
 Orthonormalize:                     1.081     0.000   0.0% |
  calc_s_matrix:                     0.210     0.210   0.0% |
  inverse-cholesky:                  0.001     0.001   0.0% |
  projections:                       0.565     0.565   0.1% |
  rotate_psi_s:                      0.305     0.305   0.1% |
Set symmetry:                        0.001     0.001   0.0% |
Other:                               1.148     1.148   0.3% |
-----------------------------------------------------------
Total:                                       448.280 100.0%

Memory usage: 323.93 MiB
Date: Tue Mar 26 18:25:23 2019
