
  ___ ___ ___ _ _ _  
 |   |   |_  | | | | 
 | | | | | . | | | | 
 |__ |  _|___|_____|  1.4.0
 |___|_|             

User:   murakami@tssm1.eng.shizuoka.ac.jp
Date:   Tue Mar 26 18:40:08 2019
Arch:   x86_64
Pid:    31289
Python: 3.6.5
gpaw:   /home/murakami/.local/lib/python3.6/site-packages/gpaw
_gpaw:  /home/murakami/.local/lib/python3.6/site-packages/
        _gpaw.cpython-36m-x86_64-linux-gnu.so
ase:    /home/murakami/.local/lib/python3.6/site-packages/ase (version 3.16.2)
numpy:  /home/murakami/.local/lib/python3.6/site-packages/numpy (version 1.15.2)
scipy:  /home/murakami/.local/lib/python3.6/site-packages/scipy (version 1.1.0)
units:  Angstrom and eV
cores:  1

Input parameters:
  kpts: {size: (1, 1, 1)}
  maxiter: 300
  xc: PBE

System changes: positions, numbers, cell, pbc, initial_charges, initial_magmoms 

Initialize ...

Fe-setup:
  name: Iron
  id: 37abbd8d6c3c35915a9b583b742da910
  Z: 26
  valence: 8
  core: 18
  charge: 0.0
  file: /home/murakami/Public/gpaw-setups-0.9.20000/Fe.PBE.gz
  cutoffs: 1.06(comp), 2.06(filt), 2.67(core), lmax=2
  valence states:
                energy  radius
    4s(2.00)    -5.291   1.164
    4p(0.00)    -1.326   1.058
    3d(6.00)    -7.505   1.058
    *s          21.920   1.164
    *p          25.885   1.058
    *d          19.706   1.058

  Using partial waves for Fe as LCAO basis

O-setup:
  name: Oxygen
  id: 32ecd46bf208036f09c70b0ec9a88b78
  Z: 8
  valence: 6
  core: 2
  charge: 0.0
  file: /home/murakami/Public/gpaw-setups-0.9.20000/O.PBE.gz
  cutoffs: 0.67(comp), 1.17(filt), 0.83(core), lmax=2
  valence states:
                energy  radius
    2s(2.00)   -23.961   0.688
    2p(4.00)    -9.029   0.598
    *s           3.251   0.688
    *p          18.182   0.598
    *d           0.000   0.619

  Using partial waves for O as LCAO basis

F-setup:
  name: Fluorine
  id: 9cd46ba2a61e170ad72278be75b55cc0
  Z: 9
  valence: 7
  core: 2
  charge: 0.0
  file: /home/murakami/Public/gpaw-setups-0.9.20000/F.PBE.gz
  cutoffs: 0.64(comp), 1.14(filt), 0.74(core), lmax=2
  valence states:
                energy  radius
    2s(2.00)   -29.898   0.635
    2p(5.00)   -11.110   0.635
    *s          -2.687   0.635
    *p          16.102   0.635
    *d           0.000   0.635

  Using partial waves for F as LCAO basis

Reference energy: -319034.472395

Spin-paired calculation

Occupation numbers:
  Fermi-Dirac: width=0.1000 eV

Convergence criteria:
  Maximum total energy change: 0.0005 eV / electron
  Maximum integral of absolute density change: 0.0001 electrons
  Maximum integral of absolute eigenstate change: 4e-08 eV^2
  Maximum number of iterations: 300

Symmetries present (total): 1

  ( 1  0  0)
  ( 0  1  0)
  ( 0  0  1)

1 k-point (Gamma)
1 k-point in the irreducible part of the Brillouin zone
       k-points in crystal coordinates                weights
   0:     0.00000000    0.00000000    0.00000000          1/1

Wave functions: Uniform real-space grid
  Kinetic energy operator: 8*3+1=25 point O(h^6) finite-difference Laplacian
  ScaLapack parameters: grid=1x1, blocksize=None 

Eigensolver
   Davidson(niter=1, smin=None, normalize=True) 

Densities:
  Coarse grid: 28*24*52 grid
  Fine grid: 56*48*104 grid
  Total Charge: 0.000000 

Density mixing:
  Method: separate
  Backend: pulay
  Linear mixing parameter: 0.05
  Mixing with 5 old densities
  Damping of long wave oscillations: 50 

Hamiltonian:
  XC and Coulomb potentials evaluated on a 56*48*104 grid
  Using the PBE Exchange-Correlation functional
  Interpolation: tri-quintic (5. degree polynomial)
  Poisson solver: Jacobi solver with 4 multi-grid levels
    Coarsest grid: 7 x 6 x 13 points
    Stencil: 8*3+1=25 point O(h^6) finite-difference Laplacian
    Max iterations: 1000
    Tolerance: 2.000000e-10 

Memory estimate:
  Process memory now: 333.40 MiB
  Calculator: 140.43 MiB
    Density: 46.47 MiB
      Arrays: 6.93 MiB
      Localized functions: 36.87 MiB
      Mixer: 2.67 MiB
    Hamiltonian: 12.49 MiB
      Arrays: 4.53 MiB
      XC: 0.00 MiB
      Poisson: 5.17 MiB
      vbar: 2.79 MiB
    Wavefunctions: 81.47 MiB
      Arrays psit_nG: 36.26 MiB
      Eigensolver: 39.01 MiB
      Projections: 0.37 MiB
      Projectors: 5.84 MiB

Total number of cores used: 1

Number of atoms: 24
Number of atomic orbitals: 136
Number of bands in calculation: 136
Bands to converge: occupied states only
Number of valence electrons: 174

... initialized

Initializing position-dependent things.

Density initialized from atomic densities
Creating initial wave functions:
  136 bands from LCAO basis set

                                 
                                 
                                 
                                 
                Fe               
                     O           
                      Fe         
          FF   F    Fe           
                      F          
           Fe                    
           F       F             
              F        Fe        
               Fe                
                                 
             FeF FO   F          
                                 
       F          Fe             
            F     F              
                                 
                                 
                                 
                                 
                                 

Positions:
   0 Fe     1.454954    1.215541    7.889517    ( 0.0000,  0.0000,  0.0000)
   1 Fe     1.429406    3.596231    2.484800    ( 0.0000,  0.0000,  0.0000)
   2 Fe     2.978840    1.147391    5.021961    ( 0.0000,  0.0000,  0.0000)
   3 Fe     2.993190    3.613124   10.465511    ( 0.0000,  0.0000,  0.0000)
   4 Fe     4.337012    1.106753    2.287094    ( 0.0000,  0.0000,  0.0000)
   5 Fe     4.362736    3.678689    7.729077    ( 0.0000,  0.0000,  0.0000)
   6 Fe     5.732462    1.155072   10.063461    ( 0.0000,  0.0000,  0.0000)
   7 Fe     5.706738    3.630370    4.621478    ( 0.0000,  0.0000,  0.0000)
   8 O      4.487293    0.279843    3.926077    ( 0.0000,  0.0000,  0.0000)
   9 O      4.513017    4.485577    9.368060    ( 0.0000,  0.0000,  0.0000)
  10 F      0.087986    0.275431    1.978610    ( 0.0000,  0.0000,  0.0000)
  11 F      0.113710    4.510011    7.420593    ( 0.0000,  0.0000,  0.0000)
  12 F      1.304169    2.150774    6.036975    ( 0.0000,  0.0000,  0.0000)
  13 F      1.278445    2.634668    0.594992    ( 0.0000,  0.0000,  0.0000)
  14 F      1.649095    0.247632    9.814751    ( 0.0000,  0.0000,  0.0000)
  15 F      1.623371    4.537810    4.372768    ( 0.0000,  0.0000,  0.0000)
  16 F      2.780245    2.170342    3.056782    ( 0.0000,  0.0000,  0.0000)
  17 F      2.805969    2.615100    8.498765    ( 0.0000,  0.0000,  0.0000)
  18 F      3.031909    0.170362    6.924657    ( 0.0000,  0.0000,  0.0000)
  19 F      3.006185    4.615080    1.482674    ( 0.0000,  0.0000,  0.0000)
  20 F      4.148045    2.120047    0.420612    ( 0.0000,  0.0000,  0.0000)
  21 F      4.133325    2.665395    5.868167    ( 0.0000,  0.0000,  0.0000)
  22 F      5.625700    2.184578    8.151270    ( 0.0000,  0.0000,  0.0000)
  23 F      5.599976    2.600864    2.709287    ( 0.0000,  0.0000,  0.0000)

Unit cell:
           periodic     x           y           z      points  spacing
  1. axis:    yes    5.735919    0.000000   -0.790267    28     0.2050
  2. axis:    yes    0.000000    4.785442    0.000000    24     0.1994
  3. axis:    yes    0.051448    0.000000   10.883966    52     0.2075

  Lengths:   5.790103   4.785442  10.884088
  Angles:   90.000000  97.573715  90.000000

Effective grid spacing dv^(1/3) = 0.2045

                     log10-error:    total        iterations:
           time      wfs    density  energy       fermi  poisson
iter:   1  18:40:20  +1.56   +inf  -150.051341    3      17     
iter:   2  18:40:23  +0.21   +inf  -150.694126    3             
iter:   3  18:40:26  -0.39   +inf  -150.878861    2             
iter:   4  18:40:30  -0.63  -1.14  -149.143390    3      8      
iter:   5  18:40:35  -0.40  -1.18  -157.154849    3      10     
iter:   6  18:40:39  -0.31  -1.19  -146.206523    3      9      
iter:   7  18:40:44  -0.71  -1.42  -145.825940    3      9      
iter:   8  18:40:48  -1.43  -1.44  -146.044543    4      10     
iter:   9  18:40:53  -1.06  -1.43  -148.506274    35     14     
iter:  10  18:40:58  -0.82  -1.38  -146.084237    4      14     
iter:  11  18:41:02  -1.30  -1.45  -146.260386    4      12     
iter:  12  18:41:07  -1.33  -1.48  -145.587504    3      11     
iter:  13  18:41:12  -1.25  -1.55  -146.183062    4      11     
iter:  14  18:41:17  -1.14  -1.56  -146.755001    3      14     
iter:  15  18:41:22  -1.30  -1.54  -145.910938    4      13     
iter:  16  18:41:26  -1.30  -1.69  -148.228458    4      14     
iter:  17  18:41:31  -1.28  -1.54  -145.754501    3      14     
iter:  18  18:41:36  -1.50  -1.78  -145.800193    4      13     
iter:  19  18:41:40  -2.00  -1.71  -145.422190    3      11     
iter:  20  18:41:45  -2.66  -1.84  -145.401710    3      6      
iter:  21  18:41:49  -2.92  -1.87  -145.404090    3      6      
iter:  22  18:41:54  -2.04  -1.88  -146.291237    3      13     
iter:  23  18:42:00  -1.73  -1.73  -145.674725    3      13     
iter:  24  18:42:05  -1.82  -1.96  -146.275981    3      13     
iter:  25  18:42:09  -1.72  -1.83  -146.165109    2      13     
iter:  26  18:42:14  -1.73  -1.85  -145.602468    4      11     
iter:  27  18:42:19  -2.18  -2.04  -145.435696    3      9      
iter:  28  18:42:23  -2.96  -2.17  -145.443784    3      7      
iter:  29  18:42:28  -2.71  -2.22  -145.465573    2      6      
iter:  30  18:42:32  -2.18  -2.23  -145.765024    3      11     
iter:  31  18:42:37  -2.14  -2.01  -145.580047    2      12     
iter:  32  18:42:41  -2.48  -2.17  -145.398576    3      10     
iter:  33  18:42:46  -2.62  -2.61  -145.470202    3      9      
iter:  34  18:42:50  -2.74  -2.38  -145.399006    3      9      
iter:  35  18:42:55  -3.71  -2.69  -145.389919    2      4      
iter:  36  18:42:59  -3.98  -2.75  -145.389838    2      6      
iter:  37  18:43:04  -3.72  -2.71  -145.388378    2      7      
iter:  38  18:43:09  -3.80  -2.73  -145.388291    3      6      
iter:  39  18:43:13  -3.33  -2.79  -145.391535    3      6      
iter:  40  18:43:18  -3.31  -2.85  -145.394002    3      6      
iter:  41  18:43:22  -3.33  -2.84  -145.378510    2      6      
iter:  42  18:43:27  -3.39  -2.80  -145.388693    3      6      
iter:  43  18:43:32  -3.80  -2.88  -145.387040    2      7      
iter:  44  18:43:36  -3.80  -2.96  -145.382431    3      6      
iter:  45  18:43:41  -4.21  -3.04  -145.381079    3      5      
iter:  46  18:43:45  -4.40  -3.17  -145.380674    2      4      
iter:  47  18:43:50  -4.40  -3.16  -145.384321    3      4      
iter:  48  18:43:54  -4.35  -3.18  -145.380579    2      4      
iter:  49  18:43:59  -4.42  -3.17  -145.381414    2      6      
iter:  50  18:44:04  -4.06  -3.15  -145.385871    2      7      
iter:  51  18:44:08  -4.07  -2.96  -145.381588    2      6      
iter:  52  18:44:13  -4.56  -3.32  -145.382057    2      4      
iter:  53  18:44:17  -4.91  -3.32  -145.380249    2      3      
iter:  54  18:44:22  -5.31  -3.40  -145.381097    2      3      
iter:  55  18:44:27  -5.42  -3.41  -145.381114    2      3      
iter:  56  18:44:31  -4.88  -3.42  -145.381822    2      5      
iter:  57  18:44:35  -4.57  -3.30  -145.381173    2      5      
iter:  58  18:44:40  -4.55  -3.43  -145.380787    2      4      
iter:  59  18:44:44  -4.50  -3.32  -145.382628    2      4      
iter:  60  18:44:48  -4.74  -3.48  -145.381360    2      4      
iter:  61  18:44:53  -4.95  -3.37  -145.380964    2      4      
iter:  62  18:44:57  -5.67  -3.60  -145.380890    2      4      
iter:  63  18:45:01  -5.14  -3.63  -145.381322    2      4      
iter:  64  18:45:06  -4.99  -3.54  -145.381379    2      4      
iter:  65  18:45:10  -5.06  -3.64  -145.380343    2      3      
iter:  66  18:45:14  -5.37  -3.76  -145.380971    2      4      
iter:  67  18:45:19  -5.36  -4.02  -145.381544    2      3      
iter:  68  18:45:23  -5.35  -3.67  -145.381175    2      3      
iter:  69  18:45:27  -6.29  -4.20  -145.381239    2      2      
iter:  70  18:45:31  -6.33  -4.19  -145.381059    2      2      
iter:  71  18:45:36  -6.64  -4.25  -145.381315    2      2      
iter:  72  18:45:40  -7.02  -4.28  -145.381367    2      1      
iter:  73  18:45:44  -6.89  -4.35  -145.381396    2      2      
iter:  74  18:45:48  -6.95  -4.27  -145.381021    2      2      
iter:  75  18:45:52  -7.37  -4.38  -145.381559    2      1      
iter:  76  18:45:57  -6.47  -4.41  -145.381356    2      3      
iter:  77  18:46:01  -6.47  -4.15  -145.381451    2      2      
iter:  78  18:46:05  -6.36  -4.22  -145.380883    2      3      
iter:  79  18:46:10  -6.83  -4.46  -145.381208    2      2      
iter:  80  18:46:14  -6.72  -4.37  -145.381217    2      3      
iter:  81  18:46:18  -6.82  -4.38  -145.381349    2      2      
iter:  82  18:46:22  -6.81  -4.70  -145.380858    2      2      
iter:  83  18:46:27  -6.97  -4.54  -145.381334    2      2      
iter:  84  18:46:31  -7.55  -4.69  -145.381348    2      1      

Converged after 84 iterations.

Dipole moment: (-1.571993, 2.853139, -2.026905) |e|*Ang

Energy contributions relative to reference atoms: (reference = -319034.472395)

Kinetic:       +118.459313
Potential:     -132.368530
External:        +0.000000
XC:            -138.486624
Entropy (-ST):   -1.211284
Local:           +7.620134
--------------------------
Free energy:   -145.986990
Extrapolated:  -145.381348

Fermi level: 3.67756

 Band  Eigenvalues  Occupancy
    0    -20.68250    2.00000
    1    -20.60217    2.00000
    2    -20.37851    2.00000
    3    -20.32191    2.00000
    4    -20.29913    2.00000
    5    -20.27515    2.00000
    6    -20.21248    2.00000
    7    -20.18572    2.00000
    8    -20.15109    2.00000
    9    -20.08475    2.00000
   10    -20.05832    2.00000
   11    -19.96226    2.00000
   12    -19.83933    2.00000
   13    -19.81368    2.00000
   14    -14.61430    2.00000
   15    -14.57292    2.00000
   16     -4.19943    2.00000
   17     -3.84758    2.00000
   18     -3.43852    2.00000
   19     -3.28254    2.00000
   20     -3.26250    2.00000
   21     -3.09467    2.00000
   22     -3.03672    2.00000
   23     -2.99621    2.00000
   24     -2.93917    2.00000
   25     -2.88960    2.00000
   26     -2.77320    2.00000
   27     -2.64024    2.00000
   28     -2.62495    2.00000
   29     -2.62270    2.00000
   30     -2.49688    2.00000
   31     -2.46571    2.00000
   32     -2.42206    2.00000
   33     -2.38649    2.00000
   34     -2.32701    2.00000
   35     -2.29223    2.00000
   36     -2.26356    2.00000
   37     -2.24711    2.00000
   38     -2.12108    2.00000
   39     -2.08574    2.00000
   40     -2.06272    2.00000
   41     -2.01770    2.00000
   42     -1.99768    2.00000
   43     -1.94924    2.00000
   44     -1.76008    2.00000
   45     -1.69363    2.00000
   46     -1.50433    2.00000
   47     -1.44010    2.00000
   48     -1.39227    2.00000
   49     -1.29812    2.00000
   50     -1.13172    2.00000
   51     -1.10276    2.00000
   52     -1.04646    2.00000
   53     -1.02651    2.00000
   54     -0.87285    2.00000
   55     -0.83184    2.00000
   56     -0.76609    2.00000
   57     -0.73739    2.00000
   58     -0.56908    2.00000
   59     -0.50050    2.00000
   60     -0.41332    2.00000
   61     -0.34432    2.00000
   62      0.40960    2.00000
   63      0.44661    2.00000
   64      2.90365    1.99913
   65      2.91173    1.99906
   66      2.98144    1.99811
   67      2.99127    1.99791
   68      3.00681    1.99756
   69      3.02651    1.99703
   70      3.06381    1.99569
   71      3.10085    1.99376
   72      3.13384    1.99133
   73      3.15135    1.98968
   74      3.21104    1.98134
   75      3.22042    1.97952
   76      3.25878    1.97009
   77      3.27102    1.96626
   78      3.29034    1.95922
   79      3.35404    1.92427
   80      3.37708    1.90558
   81      3.38214    1.90092
   82      3.42898    1.84627
   83      3.46641    1.78403
   84      3.55375    1.55044
   85      3.57369    1.47718
   86      3.60257    1.35828
   87      3.69828    0.89676
   88      3.71692    0.80566
   89      3.84097    0.32653
   90      3.93924    0.13612
   91      3.94230    0.13230
   92      4.01874    0.06385
   93      4.06887    0.03917
   94      4.14878    0.01781
   95      4.15354    0.01699
   96      4.39856    0.00148
   97      4.48379    0.00063
   98      4.83735    0.00002
   99      4.94277    0.00001
  100      4.99423    0.00000
  101      5.00397    0.00000
  102      5.11149    0.00000
  103      5.28087    0.00000
  104      6.19431    0.00000
  105      7.97093    0.00000
  106      8.45847    0.00000
  107     10.95956    0.00000
  108     11.30721    0.00000
  109     11.33336    0.00000
  110     11.49311    0.00000
  111     11.71637    0.00000
  112     11.93245    0.00000
  113     12.03526    0.00000
  114     12.18375    0.00000
  115     12.84236    0.00000
  116     13.22025    0.00000
  117     13.23455    0.00000
  118     13.60406    0.00000
  119     13.88930    0.00000
  120     14.54847    0.00000
  121     14.98923    0.00000
  122     15.02833    0.00000
  123     15.12701    0.00000
  124     15.28987    0.00000
  125     15.73890    0.00000
  126     15.78931    0.00000
  127     15.83411    0.00000
  128     15.85194    0.00000
  129     15.95127    0.00000
  130     16.08327    0.00000
  131     16.12486    0.00000
  132     16.19447    0.00000
  133     16.32074    0.00000
  134     16.34829    0.00000
  135     16.48486    0.00000

Timing:                              incl.     excl.
-----------------------------------------------------------
Hamiltonian:                         2.024     0.000   0.0% |
 Atomic:                             1.073     0.003   0.0% |
  XC Correction:                     1.070     1.070   0.3% |
 Calculate atomic Hamiltonians:      0.014     0.014   0.0% |
 Communicate:                        0.000     0.000   0.0% |
 Hartree integrate/restrict:         0.007     0.007   0.0% |
 Initialize Hamiltonian:             0.000     0.000   0.0% |
 Poisson:                            0.701     0.701   0.2% |
 XC 3D grid:                         0.227     0.227   0.1% |
 vbar:                               0.003     0.003   0.0% |
LCAO initialization:                 5.741     0.229   0.1% |
 LCAO eigensolver:                   0.952     0.000   0.0% |
  Calculate projections:             0.003     0.003   0.0% |
  DenseAtomicCorrection:             0.003     0.003   0.0% |
  Distribute overlap matrix:         0.000     0.000   0.0% |
  Orbital Layouts:                   0.009     0.009   0.0% |
  Potential matrix:                  0.937     0.937   0.2% |
 LCAO to grid:                       3.931     3.931   1.0% |
 Set positions (LCAO WFS):           0.629     0.000   0.0% |
  Basic WFS set positions:           0.001     0.001   0.0% |
  Basis functions set positions:     0.000     0.000   0.0% |
  TCI: Calculate S, T, P:            0.628     0.628   0.2% |
SCF-cycle:                         374.285     0.058   0.0% |
 Davidson:                         243.535    63.019  16.5% |------|
  Apply hamiltonian:                 8.997     8.997   2.3% ||
  Subspace diag:                    61.681     0.012   0.0% |
   calc_h_matrix:                   26.261    17.255   4.5% |-|
    Apply hamiltonian:               9.007     9.007   2.4% ||
   diagonalize:                      0.346     0.346   0.1% |
   rotate_psi:                      35.062    35.062   9.2% |---|
  calc. matrices:                   72.916    63.899  16.7% |------|
   Apply hamiltonian:                9.018     9.018   2.4% ||
  diagonalize:                       1.415     1.415   0.4% |
  rotate_psi:                       35.507    35.507   9.3% |---|
 Density:                            2.480     0.002   0.0% |
  Atomic density matrices:           0.199     0.199   0.1% |
  Mix:                               1.594     1.594   0.4% |
  Multipole moments:                 0.048     0.048   0.0% |
  Pseudo density:                    0.638     0.636   0.2% |
   Symmetrize density:               0.001     0.001   0.0% |
 Hamiltonian:                      127.597     0.008   0.0% |
  Atomic:                           87.459     0.219   0.1% |
   XC Correction:                   87.240    87.240  22.8% |--------|
  Calculate atomic Hamiltonians:     1.029     1.029   0.3% |
  Communicate:                       0.001     0.001   0.0% |
  Hartree integrate/restrict:        0.467     0.467   0.1% |
  Poisson:                          20.436    20.436   5.3% |-|
  XC 3D grid:                       18.015    18.015   4.7% |-|
  vbar:                              0.182     0.182   0.0% |
 Orthonormalize:                     0.615     0.000   0.0% |
  calc_s_matrix:                     0.145     0.145   0.0% |
  inverse-cholesky:                  0.001     0.001   0.0% |
  projections:                       0.251     0.251   0.1% |
  rotate_psi_s:                      0.218     0.218   0.1% |
Set symmetry:                        0.001     0.001   0.0% |
Other:                               0.875     0.875   0.2% |
-----------------------------------------------------------
Total:                                       382.925 100.0%

Memory usage: 337.94 MiB
Date: Tue Mar 26 18:46:31 2019
