
  ___ ___ ___ _ _ _  
 |   |   |_  | | | | 
 | | | | | . | | | | 
 |__ |  _|___|_____|  1.4.0
 |___|_|             

User:   murakami@tssm1.eng.shizuoka.ac.jp
Date:   Thu Mar 28 08:10:58 2019
Arch:   x86_64
Pid:    31289
Python: 3.6.5
gpaw:   /home/murakami/.local/lib/python3.6/site-packages/gpaw
_gpaw:  /home/murakami/.local/lib/python3.6/site-packages/
        _gpaw.cpython-36m-x86_64-linux-gnu.so
ase:    /home/murakami/.local/lib/python3.6/site-packages/ase (version 3.16.2)
numpy:  /home/murakami/.local/lib/python3.6/site-packages/numpy (version 1.15.2)
scipy:  /home/murakami/.local/lib/python3.6/site-packages/scipy (version 1.1.0)
units:  Angstrom and eV
cores:  1

Input parameters:
  kpts: {size: (1, 1, 1)}
  maxiter: 300
  xc: PBE

System changes: positions, numbers, cell, pbc, initial_charges, initial_magmoms 

Initialize ...

Fe-setup:
  name: Iron
  id: 37abbd8d6c3c35915a9b583b742da910
  Z: 26
  valence: 8
  core: 18
  charge: 0.0
  file: /home/murakami/Public/gpaw-setups-0.9.20000/Fe.PBE.gz
  cutoffs: 1.06(comp), 2.06(filt), 2.67(core), lmax=2
  valence states:
                energy  radius
    4s(2.00)    -5.291   1.164
    4p(0.00)    -1.326   1.058
    3d(6.00)    -7.505   1.058
    *s          21.920   1.164
    *p          25.885   1.058
    *d          19.706   1.058

  Using partial waves for Fe as LCAO basis

O-setup:
  name: Oxygen
  id: 32ecd46bf208036f09c70b0ec9a88b78
  Z: 8
  valence: 6
  core: 2
  charge: 0.0
  file: /home/murakami/Public/gpaw-setups-0.9.20000/O.PBE.gz
  cutoffs: 0.67(comp), 1.17(filt), 0.83(core), lmax=2
  valence states:
                energy  radius
    2s(2.00)   -23.961   0.688
    2p(4.00)    -9.029   0.598
    *s           3.251   0.688
    *p          18.182   0.598
    *d           0.000   0.619

  Using partial waves for O as LCAO basis

F-setup:
  name: Fluorine
  id: 9cd46ba2a61e170ad72278be75b55cc0
  Z: 9
  valence: 7
  core: 2
  charge: 0.0
  file: /home/murakami/Public/gpaw-setups-0.9.20000/F.PBE.gz
  cutoffs: 0.64(comp), 1.14(filt), 0.74(core), lmax=2
  valence states:
                energy  radius
    2s(2.00)   -29.898   0.635
    2p(5.00)   -11.110   0.635
    *s          -2.687   0.635
    *p          16.102   0.635
    *d           0.000   0.635

  Using partial waves for F as LCAO basis

Reference energy: -648925.267931

Spin-paired calculation

Occupation numbers:
  Fermi-Dirac: width=0.1000 eV

Convergence criteria:
  Maximum total energy change: 0.0005 eV / electron
  Maximum integral of absolute density change: 0.0001 electrons
  Maximum integral of absolute eigenstate change: 4e-08 eV^2
  Maximum number of iterations: 300

Symmetries present (total): 1

  ( 1  0  0)
  ( 0  1  0)
  ( 0  0  1)

1 k-point (Gamma)
1 k-point in the irreducible part of the Brillouin zone
       k-points in crystal coordinates                weights
   0:     0.00000000    0.00000000    0.00000000          1/1

Wave functions: Uniform real-space grid
  Kinetic energy operator: 12*3+1=37 point O(h^6) finite-difference Laplacian
  ScaLapack parameters: grid=1x1, blocksize=None 

Eigensolver
   Davidson(niter=1, smin=None, normalize=True) 

Densities:
  Coarse grid: 48*28*76 grid
  Fine grid: 96*56*152 grid
  Total Charge: 0.000000 

Density mixing:
  Method: separate
  Backend: pulay
  Linear mixing parameter: 0.05
  Mixing with 5 old densities
  Damping of long wave oscillations: 50 

Hamiltonian:
  XC and Coulomb potentials evaluated on a 96*56*152 grid
  Using the PBE Exchange-Correlation functional
  Interpolation: tri-quintic (5. degree polynomial)
  Poisson solver: Jacobi solver with 4 multi-grid levels
    Coarsest grid: 12 x 7 x 19 points
    Stencil: 12*3+1=37 point O(h^6) finite-difference Laplacian
    Max iterations: 1000
    Tolerance: 2.000000e-10 

Memory estimate:
  Process memory now: 1099.94 MiB
  Calculator: 625.81 MiB
    Density: 116.13 MiB
      Arrays: 20.26 MiB
      Localized functions: 88.08 MiB
      Mixer: 7.79 MiB
    Hamiltonian: 35.03 MiB
      Arrays: 13.25 MiB
      XC: 0.00 MiB
      Poisson: 15.10 MiB
      vbar: 6.68 MiB
    Wavefunctions: 474.64 MiB
      Arrays psit_nG: 224.44 MiB
      Eigensolver: 234.67 MiB
      Projections: 1.66 MiB
      Projectors: 13.87 MiB

Total number of cores used: 1

Number of atoms: 52
Number of atomic orbitals: 288
Number of bands in calculation: 288
Bands to converge: occupied states only
Number of valence electrons: 376

... initialized

Initializing position-dependent things.

Density initialized from atomic densities
Creating initial wave functions:
  288 bands from LCAO basis set

                                           
                                           
                                           
                                           
                          Fe               
              F       F                    
             Fe              O             
               O        F       F          
                            Fe             
         F       F        F                
               Fe                          
            FFe    F       F               
              F        F     F             
         F     F       Fe                  
                        F   Fe             
             Fe  O        F     F          
               Fe Fe                       
            F      F   Fe  O               
              F       F     Fe             
                          Fe               
         F   FeF        F                  
                         F                 
          F     F Fe                       
            F                              
                    F     F Fe             
                                           
                                           
                                           
                                           
                                           

Positions:
   0 Fe     1.542848    2.591664    2.671397    ( 0.0000,  0.0000,  0.0000)
   1 Fe     1.542848    2.763425   10.149222    ( 0.0000,  0.0000,  0.0000)
   2 Fe     6.243444    5.264729    2.610441    ( 0.0000,  0.0000,  0.0000)
   3 Fe     6.243444    0.077022   10.088267    ( 0.0000,  0.0000,  0.0000)
   4 Fe     1.648330    2.531896   14.530952    ( 0.0000,  0.0000,  0.0000)
   5 Fe     1.648330    2.822894    7.053127    ( 0.0000,  0.0000,  0.0000)
   6 Fe     6.348925    5.204961   14.469997    ( 0.0000,  0.0000,  0.0000)
   7 Fe     6.348925    0.136491    6.992171    ( 0.0000,  0.0000,  0.0000)
   8 Fe     3.117708    0.153220   12.259113    ( 0.0000,  0.0000,  0.0000)
   9 Fe     3.117708    5.197400    4.781288    ( 0.0000,  0.0000,  0.0000)
  10 Fe     7.818303    2.826285   12.198158    ( 0.0000,  0.0000,  0.0000)
  11 Fe     7.818303    2.510998    4.720332    ( 0.0000,  0.0000,  0.0000)
  12 Fe     3.136416    0.018703    7.693120    ( 0.0000,  0.0000,  0.0000)
  13 Fe     3.136416    5.331864    0.215294    ( 0.0000,  0.0000,  0.0000)
  14 Fe     7.837011    2.691768    7.632164    ( 0.0000,  0.0000,  0.0000)
  15 Fe     7.837011    2.645462    0.154339    ( 0.0000,  0.0000,  0.0000)
  16 O      2.907450    1.429039   13.802975    ( 0.0000,  0.0000,  0.0000)
  17 O      2.907450    3.922178    6.325149    ( 0.0000,  0.0000,  0.0000)
  18 O      7.608045    4.090099   13.742019    ( 0.0000,  0.0000,  0.0000)
  19 O      7.608045    1.235775    6.264194    ( 0.0000,  0.0000,  0.0000)
  20 F      0.036298    1.976745    3.647945    ( 0.0000,  0.0000,  0.0000)
  21 F      0.036298    3.382619   11.125771    ( 0.0000,  0.0000,  0.0000)
  22 F      4.736893    4.649810    3.586990    ( 0.0000,  0.0000,  0.0000)
  23 F      4.736893    0.696216   11.064815    ( 0.0000,  0.0000,  0.0000)
  24 F      0.243622    2.118664    8.658541    ( 0.0000,  0.0000,  0.0000)
  25 F      0.243622    3.240111    1.180715    ( 0.0000,  0.0000,  0.0000)
  26 F      4.944218    4.791729    8.597585    ( 0.0000,  0.0000,  0.0000)
  27 F      4.944218    0.553709    1.119760    ( 0.0000,  0.0000,  0.0000)
  28 F      1.655719    1.145488    1.227401    ( 0.0000,  0.0000,  0.0000)
  29 F      1.655719    4.212041    8.705226    ( 0.0000,  0.0000,  0.0000)
  30 F      6.356314    3.818552    1.166445    ( 0.0000,  0.0000,  0.0000)
  31 F      6.356314    1.522878    8.644271    ( 0.0000,  0.0000,  0.0000)
  32 F      1.706072    1.087936   11.036892    ( 0.0000,  0.0000,  0.0000)
  33 F      1.706072    4.266690    3.559067    ( 0.0000,  0.0000,  0.0000)
  34 F      6.406667    3.761001   10.975937    ( 0.0000,  0.0000,  0.0000)
  35 F      6.406667    1.580287    3.498111    ( 0.0000,  0.0000,  0.0000)
  36 F      1.776853    1.079341    6.313114    ( 0.0000,  0.0000,  0.0000)
  37 F      1.776853    4.275084   13.790940    ( 0.0000,  0.0000,  0.0000)
  38 F      6.477449    3.752406    6.252159    ( 0.0000,  0.0000,  0.0000)
  39 F      6.477449    1.588682   13.729984    ( 0.0000,  0.0000,  0.0000)
  40 F      2.759033    1.855113    8.612701    ( 0.0000,  0.0000,  0.0000)
  41 F      2.759033    3.448118    1.134876    ( 0.0000,  0.0000,  0.0000)
  42 F      7.459629    4.528178    8.551746    ( 0.0000,  0.0000,  0.0000)
  43 F      7.459629    0.810123    1.073920    ( 0.0000,  0.0000,  0.0000)
  44 F      2.849557    1.633869    3.672334    ( 0.0000,  0.0000,  0.0000)
  45 F      2.849557    3.717512   11.150159    ( 0.0000,  0.0000,  0.0000)
  46 F      7.639455    4.306807    3.610220    ( 0.0000,  0.0000,  0.0000)
  47 F      7.550153    1.031110   11.007007    ( 0.0000,  0.0000,  0.0000)
  48 F      4.613296    0.715096    6.265744    ( 0.0000,  0.0000,  0.0000)
  49 F      4.619520    4.631272   13.743489    ( 0.0000,  0.0000,  0.0000)
  50 F      9.313892    3.388161    6.204788    ( 0.0000,  0.0000,  0.0000)
  51 F      9.313892    1.944878   13.682614    ( 0.0000,  0.0000,  0.0000)

Unit cell:
           periodic     x           y           z      points  spacing
  1. axis:    yes    9.401191   -0.013338   -0.121911    48     0.1959
  2. axis:    yes    0.000000    5.359467    0.000000    28     0.1914
  3. axis:    yes    0.000000    0.000000   14.955651    76     0.1968

  Lengths:   9.401991   5.359467  14.955651
  Angles:   90.000000  90.742947  90.081282

Effective grid spacing dv^(1/3) = 0.1947

                     log10-error:    total        iterations:
           time      wfs    density  energy       fermi  poisson
iter:   1  08:12:22  +1.49   +inf  -311.765387    3      18     
iter:   2  08:13:01  +0.29   +inf  -313.332099    3             
iter:   3  08:13:39  -0.29   +inf  -313.759884    2             
iter:   4  08:14:25  -0.46  -1.13  -310.954410    3      13     
iter:   5  08:15:11  -0.47  -1.15  -324.187191    3      23     
iter:   6  08:15:50  -0.11  -1.11  -312.430705    32     30     
iter:   7  08:16:30  -0.27  -1.31  -317.751794    4      34     
iter:   8  08:17:09  -0.70  -1.24  -305.335929    4      33     
iter:   9  08:17:50  -1.00  -1.37  -302.846802    3      25     
iter:  10  08:18:36  -1.34  -1.41  -300.943192    3      23     
iter:  11  08:19:18  -1.74  -1.44  -301.190914    4      22     
iter:  12  08:20:02  -1.46  -1.45  -304.672692    4      28     
iter:  13  08:20:42  -1.26  -1.39  -315.380800    4      32     
iter:  14  08:21:23  -1.28  -1.27  -306.760185    3      32     
iter:  15  08:22:01  -1.27  -1.39  -302.882323    4      29     
iter:  16  08:22:38  -1.45  -1.45  -301.326402    3      26     
iter:  17  08:23:15  -1.80  -1.48  -300.339745    4      19     
iter:  18  08:23:51  -1.84  -1.54  -300.805768    3      21     
iter:  19  08:24:37  -1.81  -1.52  -301.762685    4      26     
iter:  20  08:25:23  -1.67  -1.50  -304.954144    4      29     
iter:  21  08:26:10  -1.51  -1.43  -302.785016    3      30     
iter:  22  08:26:53  -1.19  -1.51  -304.662845    3      28     
iter:  23  08:27:35  -1.41  -1.46  -300.947992    3      25     
iter:  24  08:28:23  -1.84  -1.59  -300.281992    3      20     
iter:  25  08:29:09  -2.32  -1.61  -299.833618    3      22     
iter:  26  08:29:47  -2.35  -1.64  -301.805219    4      25     
iter:  27  08:30:26  -1.86  -1.56  -301.444626    3      28     
iter:  28  08:31:01  -1.86  -1.57  -300.627594    3      26     
iter:  29  08:31:39  -1.82  -1.62  -301.601301    3      26     
iter:  30  08:32:16  -1.65  -1.59  -301.903078    3      21     
iter:  31  08:32:52  -1.58  -1.61  -300.884360    4      26     
iter:  32  08:33:28  -1.89  -1.62  -301.130929    3      26     
iter:  33  08:34:03  -1.80  -1.64  -300.916099    3      26     
iter:  34  08:34:39  -2.11  -1.66  -300.428441    3      25     
iter:  35  08:35:16  -2.32  -1.71  -300.308286    3      22     
iter:  36  08:35:57  -2.32  -1.72  -300.465792    3      24     
iter:  37  08:36:55  -1.83  -1.75  -303.506632    3      27     
iter:  38  08:37:39  -1.67  -1.59  -300.457029    3      25     
iter:  39  08:38:14  -1.97  -1.76  -300.496871    3      16     
iter:  40  08:38:51  -1.97  -1.78  -300.813410    3      23     
iter:  41  08:39:28  -2.19  -1.74  -299.918666    3      24     
iter:  42  08:40:03  -2.65  -1.83  -300.051780    3      19     
iter:  43  08:40:40  -2.51  -1.82  -300.454099    3      23     
iter:  44  08:41:17  -2.29  -1.78  -299.958304    3      21     
iter:  45  08:41:51  -2.43  -1.85  -299.994173    3      14     
iter:  46  08:42:26  -2.18  -1.86  -300.670809    3      22     
iter:  47  08:43:02  -2.12  -1.80  -300.188682    3      23     
iter:  48  08:43:37  -2.40  -1.85  -299.944074    3      23     
iter:  49  08:44:12  -2.50  -1.88  -300.534620    3      22     
iter:  50  08:44:49  -2.14  -1.84  -300.219701    3      23     
iter:  51  08:45:28  -2.19  -1.89  -300.187709    3      16     
iter:  52  08:46:05  -2.30  -1.88  -300.415770    3      16     
iter:  53  08:46:41  -2.29  -1.90  -300.482540    3      23     
iter:  54  08:47:17  -2.25  -1.86  -300.255037    3      26     
iter:  55  08:47:52  -2.21  -1.88  -300.292859    3      22     
iter:  56  08:48:27  -2.18  -1.92  -299.952906    3      19     
iter:  57  08:49:03  -2.82  -1.98  -299.931889    3      20     
iter:  58  08:49:41  -3.12  -1.99  -299.859685    2      15     
iter:  59  08:50:20  -2.66  -2.03  -300.156429    3      20     
iter:  60  08:50:59  -2.50  -1.95  -300.000035    3      20     
iter:  61  08:51:37  -2.55  -2.01  -300.038732    2      21     
iter:  62  08:52:11  -2.48  -2.00  -300.049768    3      11     
iter:  63  08:52:49  -2.47  -2.01  -300.331661    3      23     
iter:  64  08:53:26  -2.51  -1.95  -299.836635    3      21     
iter:  65  08:54:00  -2.98  -2.09  -299.891152    3      9      
iter:  66  08:54:34  -2.96  -2.09  -299.806149    3      15     
iter:  67  08:55:08  -3.16  -2.12  -299.884715    3      13     
iter:  68  08:55:43  -3.02  -2.11  -299.892681    2      19     
iter:  69  08:56:18  -2.68  -2.10  -300.190118    3      21     
iter:  70  08:56:55  -2.32  -2.05  -300.285993    3      21     
iter:  71  08:57:31  -2.45  -1.99  -300.155076    3      21     
iter:  72  08:58:07  -2.49  -2.08  -300.009035    3      21     
iter:  73  08:58:43  -2.86  -2.10  -299.869046    3      16     
iter:  74  08:59:19  -3.26  -2.18  -299.812510    3      17     
iter:  75  08:59:55  -3.47  -2.25  -299.867618    3      15     
iter:  76  09:00:30  -3.02  -2.23  -299.880889    3      12     
iter:  77  09:01:05  -3.02  -2.22  -299.853424    2      13     
iter:  78  09:01:41  -2.82  -2.25  -300.122288    3      21     
iter:  79  09:02:18  -2.64  -2.09  -300.080299    3      20     
iter:  80  09:02:54  -2.76  -2.18  -299.890777    3      21     
iter:  81  09:03:30  -3.10  -2.22  -299.904489    3      18     
iter:  82  09:04:06  -3.12  -2.25  -299.838594    3      17     
iter:  83  09:04:41  -3.36  -2.33  -299.827790    2      11     
iter:  84  09:05:16  -3.56  -2.34  -299.833716    2      14     
iter:  85  09:05:51  -3.22  -2.36  -299.876002    3      13     
iter:  86  09:06:28  -2.85  -2.35  -300.217612    3      23     
iter:  87  09:07:04  -2.74  -2.08  -299.977004    3      22     
iter:  88  09:07:39  -2.88  -2.32  -299.907669    2      9      
iter:  89  09:08:15  -3.01  -2.35  -299.869538    3      18     
iter:  90  09:08:51  -3.14  -2.35  -299.845748    2      18     
iter:  91  09:09:25  -3.07  -2.39  -299.847098    3      8      
iter:  92  09:10:00  -3.56  -2.44  -299.820665    3      14     
iter:  93  09:10:36  -3.61  -2.48  -299.863576    2      17     
iter:  94  09:11:10  -3.26  -2.41  -299.872072    2      9      
iter:  95  09:11:46  -3.35  -2.40  -299.830300    2      17     
iter:  96  09:12:21  -3.64  -2.48  -299.807943    2      14     
iter:  97  09:12:55  -3.75  -2.54  -299.814320    3      9      
iter:  98  09:13:30  -4.30  -2.56  -299.804543    2      9      
iter:  99  09:14:04  -4.28  -2.60  -299.814738    3      9      
iter: 100  09:14:39  -3.92  -2.58  -299.831083    2      13     
iter: 101  09:15:15  -3.62  -2.52  -299.835917    2      18     
iter: 102  09:15:49  -3.53  -2.49  -299.845404    3      15     
iter: 103  09:16:23  -3.38  -2.54  -299.836358    3      13     
iter: 104  09:16:57  -3.56  -2.50  -299.814889    3      14     
iter: 105  09:17:30  -4.19  -2.62  -299.805287    2      8      
iter: 106  09:18:02  -4.64  -2.68  -299.806678    2      5      
iter: 107  09:18:38  -4.25  -2.69  -299.816036    2      13     
iter: 108  09:19:13  -3.93  -2.64  -299.821390    2      14     
iter: 109  09:19:48  -3.59  -2.64  -299.885397    3      17     
iter: 110  09:20:24  -3.40  -2.49  -299.838602    3      18     
iter: 111  09:20:59  -3.53  -2.57  -299.817408    2      14     
iter: 112  09:21:32  -4.03  -2.66  -299.814818    2      7      
iter: 113  09:22:06  -4.37  -2.72  -299.806840    2      11     
iter: 114  09:22:39  -4.67  -2.78  -299.807063    2      9      
iter: 115  09:23:12  -4.25  -2.78  -299.813499    2      8      
iter: 116  09:23:45  -3.87  -2.79  -299.823920    2      7      
iter: 117  09:24:19  -3.49  -2.74  -299.862022    2      15     
iter: 118  09:25:00  -3.51  -2.56  -299.829322    2      15     
iter: 119  09:25:42  -3.84  -2.67  -299.811140    2      15     
iter: 120  09:26:22  -4.33  -2.80  -299.808384    2      8      
iter: 121  09:26:56  -4.78  -2.88  -299.809152    2      6      
iter: 122  09:27:29  -4.71  -2.89  -299.807833    2      8      
iter: 123  09:28:04  -4.43  -2.91  -299.808281    2      6      
iter: 124  09:28:37  -4.29  -2.90  -299.816852    3      10     
iter: 125  09:29:13  -3.81  -2.85  -299.847207    2      17     
iter: 126  09:29:48  -3.75  -2.60  -299.814146    2      15     
iter: 127  09:30:21  -4.26  -2.88  -299.808247    2      9      
iter: 128  09:30:56  -4.77  -2.96  -299.806117    2      8      
iter: 129  09:31:30  -5.04  -3.03  -299.807967    2      4      
iter: 130  09:32:02  -4.94  -3.04  -299.808657    2      4      
iter: 131  09:32:35  -4.81  -3.03  -299.806412    2      4      
iter: 132  09:33:07  -4.53  -3.06  -299.812364    2      6      
iter: 133  09:33:41  -4.26  -2.95  -299.816696    2      11     
iter: 134  09:34:14  -4.40  -2.91  -299.811335    1      11     
iter: 135  09:34:48  -4.73  -3.04  -299.807057    2      5      
iter: 136  09:35:24  -5.07  -3.10  -299.806328    2      4      
iter: 137  09:36:04  -4.99  -3.11  -299.808002    2      4      
iter: 138  09:36:43  -5.12  -3.14  -299.809796    2      5      
iter: 139  09:37:19  -4.73  -3.10  -299.810084    2      9      
iter: 140  09:37:53  -4.62  -3.06  -299.808719    2      11     
iter: 141  09:38:27  -4.54  -3.05  -299.810058    2      7      
iter: 142  09:38:59  -4.64  -3.09  -299.812543    2      5      
iter: 143  09:39:34  -4.55  -3.16  -299.806822    3      6      
iter: 144  09:40:07  -5.01  -3.18  -299.807039    2      5      
iter: 145  09:40:40  -5.01  -3.20  -299.808066    2      6      
iter: 146  09:41:15  -4.98  -3.23  -299.810396    2      8      
iter: 147  09:41:49  -4.65  -3.20  -299.808015    2      6      
iter: 148  09:42:22  -4.80  -3.16  -299.805636    2      5      
iter: 149  09:42:54  -4.60  -3.31  -299.811928    2      6      
iter: 150  09:43:27  -4.74  -3.18  -299.810679    2      6      
iter: 151  09:44:00  -5.05  -3.29  -299.808065    2      5      
iter: 152  09:44:32  -5.49  -3.37  -299.807822    2      4      
iter: 153  09:45:04  -5.15  -3.39  -299.809155    2      4      
iter: 154  09:45:39  -5.04  -3.34  -299.808197    2      7      
iter: 155  09:46:11  -4.91  -3.28  -299.807971    2      6      
iter: 156  09:46:51  -5.14  -3.30  -299.807972    2      5      
iter: 157  09:47:30  -5.76  -3.44  -299.807691    2      3      
iter: 158  09:48:06  -5.99  -3.48  -299.808091    2      3      
iter: 159  09:48:38  -5.51  -3.49  -299.807308    2      3      
iter: 160  09:49:13  -5.48  -3.45  -299.807192    2      3      
iter: 161  09:49:45  -5.58  -3.48  -299.807995    2      4      
iter: 162  09:50:17  -5.58  -3.49  -299.808268    2      4      
iter: 163  09:50:51  -5.42  -3.48  -299.807803    2      5      
iter: 164  09:51:24  -5.81  -3.52  -299.806950    2      3      
iter: 165  09:51:58  -5.71  -3.56  -299.808063    2      3      
iter: 166  09:52:31  -5.72  -3.55  -299.808228    2      3      
iter: 167  09:53:03  -5.76  -3.57  -299.807710    2      4      
iter: 168  09:53:36  -5.86  -3.58  -299.807564    2      4      
iter: 169  09:54:09  -5.25  -3.65  -299.808655    2      7      
iter: 170  09:54:41  -5.23  -3.38  -299.809156    2      4      
iter: 171  09:55:14  -5.49  -3.55  -299.808172    2      4      
iter: 172  09:55:52  -5.61  -3.65  -299.807549    2      3      
iter: 173  09:56:25  -5.92  -3.70  -299.807671    2      3      
iter: 174  09:56:58  -6.39  -3.74  -299.807469    2      3      
iter: 175  09:57:30  -5.87  -3.81  -299.808806    2      4      
iter: 176  09:58:02  -5.77  -3.69  -299.807750    2      3      
iter: 177  09:58:36  -5.89  -3.80  -299.807612    2      3      
iter: 178  09:59:10  -5.78  -3.81  -299.808007    2      3      
iter: 179  09:59:46  -5.59  -3.79  -299.807929    2      4      
iter: 180  10:00:19  -5.62  -3.67  -299.807826    2      3      
iter: 181  10:00:55  -6.57  -3.95  -299.807527    2      2      
iter: 182  10:01:31  -6.50  -3.97  -299.807970    2      2      
iter: 183  10:02:03  -6.66  -3.96  -299.807751    2      3      
iter: 184  10:02:35  -6.22  -3.99  -299.807775    2      3      
iter: 185  10:03:07  -6.13  -3.90  -299.807780    2      3      
iter: 186  10:03:40  -6.41  -3.93  -299.807719    2      3      
iter: 187  10:04:13  -6.65  -4.01  -299.808027    2      2      
iter: 188  10:04:45  -6.74  -4.04  -299.807657    2      2      
iter: 189  10:05:17  -7.15  -4.07  -299.807570    2      2      
iter: 190  10:05:49  -6.87  -4.09  -299.807778    2      2      
iter: 191  10:06:23  -6.84  -4.08  -299.807755    2      2      
iter: 192  10:06:56  -6.71  -4.09  -299.807909    2      3      
iter: 193  10:07:29  -6.50  -4.08  -299.807398    2      3      
iter: 194  10:08:03  -6.47  -4.12  -299.808038    2      3      
iter: 195  10:08:36  -6.70  -4.08  -299.808011    2      3      
iter: 196  10:09:10  -6.79  -4.12  -299.807787    2      2      
iter: 197  10:09:43  -6.94  -4.17  -299.807838    2      2      
iter: 198  10:10:16  -7.30  -4.21  -299.807608    2      2      
iter: 199  10:10:49  -7.02  -4.24  -299.807912    2      2      
iter: 200  10:11:23  -6.33  -4.28  -299.807294    2      3      
iter: 201  10:11:56  -6.25  -4.11  -299.807617    2      3      
iter: 202  10:12:29  -6.74  -4.37  -299.807837    2      2      
iter: 203  10:13:03  -6.59  -4.48  -299.808158    2      3      
iter: 204  10:13:36  -6.70  -4.26  -299.807830    2      3      
iter: 205  10:14:09  -7.02  -4.51  -299.807878    2      2      
iter: 206  10:14:43  -7.43  -4.59  -299.807825    2      2      

Converged after 206 iterations.

Dipole moment: (-28.287473, -6.716821, 2.583487) |e|*Ang

Energy contributions relative to reference atoms: (reference = -648925.267931)

Kinetic:       +208.254408
Potential:     -241.239183
External:        +0.000000
XC:            -279.300027
Entropy (-ST):   -2.809323
Local:          +13.881639
--------------------------
Free energy:   -301.212486
Extrapolated:  -299.807825

Fermi level: 1.58154

 Band  Eigenvalues  Occupancy
    0    -22.23892    2.00000
    1    -22.22183    2.00000
    2    -22.12580    2.00000
    3    -22.11445    2.00000
    4    -22.05687    2.00000
    5    -22.04702    2.00000
    6    -21.99305    2.00000
    7    -21.97514    2.00000
    8    -21.92004    2.00000
    9    -21.90939    2.00000
   10    -21.90247    2.00000
   11    -21.89456    2.00000
   12    -21.63486    2.00000
   13    -21.63052    2.00000
   14    -21.62399    2.00000
   15    -21.62351    2.00000
   16    -21.52530    2.00000
   17    -21.51868    2.00000
   18    -21.48575    2.00000
   19    -21.48244    2.00000
   20    -21.46721    2.00000
   21    -21.44627    2.00000
   22    -21.40298    2.00000
   23    -21.38657    2.00000
   24    -21.32814    2.00000
   25    -21.31822    2.00000
   26    -21.27672    2.00000
   27    -21.26467    2.00000
   28    -21.21083    2.00000
   29    -21.13909    2.00000
   30    -21.12314    2.00000
   31    -20.93905    2.00000
   32    -16.95469    2.00000
   33    -16.95108    2.00000
   34    -16.94338    2.00000
   35    -16.94279    2.00000
   36     -5.38063    2.00000
   37     -5.36828    2.00000
   38     -5.28787    2.00000
   39     -5.18837    2.00000
   40     -5.17632    2.00000
   41     -5.14712    2.00000
   42     -5.13884    2.00000
   43     -5.11010    2.00000
   44     -4.89516    2.00000
   45     -4.83960    2.00000
   46     -4.73976    2.00000
   47     -4.64052    2.00000
   48     -4.58615    2.00000
   49     -4.57051    2.00000
   50     -4.53809    2.00000
   51     -4.50046    2.00000
   52     -4.47519    2.00000
   53     -4.46822    2.00000
   54     -4.46374    2.00000
   55     -4.45489    2.00000
   56     -4.40138    2.00000
   57     -4.36595    2.00000
   58     -4.35477    2.00000
   59     -4.32988    2.00000
   60     -4.31548    2.00000
   61     -4.28991    2.00000
   62     -4.28068    2.00000
   63     -4.26918    2.00000
   64     -4.21133    2.00000
   65     -4.20425    2.00000
   66     -4.19245    2.00000
   67     -4.14236    2.00000
   68     -4.11104    2.00000
   69     -4.08836    2.00000
   70     -4.05825    2.00000
   71     -4.03521    2.00000
   72     -4.02154    2.00000
   73     -4.00271    2.00000
   74     -3.98318    2.00000
   75     -3.97217    2.00000
   76     -3.93906    2.00000
   77     -3.91784    2.00000
   78     -3.88568    2.00000
   79     -3.84550    2.00000
   80     -3.78841    2.00000
   81     -3.77551    2.00000
   82     -3.67169    2.00000
   83     -3.64183    2.00000
   84     -3.58178    2.00000
   85     -3.54851    2.00000
   86     -3.51878    2.00000
   87     -3.46073    2.00000
   88     -3.43630    2.00000
   89     -3.39767    2.00000
   90     -3.37605    2.00000
   91     -3.35401    2.00000
   92     -3.27795    2.00000
   93     -3.24489    2.00000
   94     -3.20782    2.00000
   95     -3.18735    2.00000
   96     -3.12926    2.00000
   97     -3.06113    2.00000
   98     -3.04417    2.00000
   99     -3.03026    2.00000
  100     -3.00493    2.00000
  101     -2.97577    2.00000
  102     -2.94171    2.00000
  103     -2.93840    2.00000
  104     -2.92772    2.00000
  105     -2.90983    2.00000
  106     -2.89415    2.00000
  107     -2.82617    2.00000
  108     -2.78335    2.00000
  109     -2.76925    2.00000
  110     -2.76051    2.00000
  111     -2.74662    2.00000
  112     -2.73050    2.00000
  113     -2.69206    2.00000
  114     -2.61647    2.00000
  115     -2.56139    2.00000
  116     -2.54590    2.00000
  117     -2.52192    2.00000
  118     -2.49562    2.00000
  119     -2.48105    2.00000
  120     -2.45510    2.00000
  121     -2.44064    2.00000
  122     -2.42411    2.00000
  123     -2.38301    2.00000
  124     -2.35070    2.00000
  125     -2.33457    2.00000
  126     -2.25918    2.00000
  127     -2.25049    2.00000
  128     -2.23012    2.00000
  129     -2.20762    2.00000
  130     -2.19455    2.00000
  131     -2.17516    2.00000
  132     -2.16805    2.00000
  133     -2.11142    2.00000
  134     -2.07716    2.00000
  135     -2.02772    2.00000
  136     -2.00237    2.00000
  137     -1.96285    2.00000
  138     -1.91025    2.00000
  139     -1.90434    2.00000
  140     -1.89380    2.00000
  141     -1.84812    2.00000
  142     -1.82598    2.00000
  143     -1.75517    2.00000
  144      0.82210    1.99899
  145      0.83381    1.99887
  146      0.84544    1.99873
  147      0.88862    1.99804
  148      0.89582    1.99790
  149      0.90911    1.99760
  150      0.96191    1.99593
  151      0.96594    1.99577
  152      0.99597    1.99429
  153      1.01159    1.99333
  154      1.03184    1.99184
  155      1.03417    1.99164
  156      1.03885    1.99125
  157      1.05404    1.98982
  158      1.07390    1.98759
  159      1.08874    1.98562
  160      1.12617    1.97916
  161      1.15921    1.97112
  162      1.16611    1.96909
  163      1.17319    1.96686
  164      1.19462    1.95911
  165      1.20236    1.95589
  166      1.21149    1.95177
  167      1.22184    1.94665
  168      1.24003    1.93635
  169      1.24473    1.93339
  170      1.24723    1.93176
  171      1.25620    1.92559
  172      1.26428    1.91958
  173      1.26593    1.91830
  174      1.28315    1.90368
  175      1.29231    1.89493
  176      1.32108    1.86232
  177      1.36415    1.79578
  178      1.36943    1.78588
  179      1.38485    1.75456
  180      1.40284    1.71313
  181      1.41925    1.67040
  182      1.44395    1.59668
  183      1.44832    1.58242
  184      1.45644    1.55495
  185      1.47544    1.48577
  186      1.51142    1.33693
  187      1.52796    1.26167
  188      1.58423    0.98654
  189      1.59978    0.90907
  190      1.61310    0.84352
  191      1.67288    0.57261
  192      1.69050    0.50339
  193      1.71387    0.42055
  194      1.73536    0.35359
  195      1.74142    0.33631
  196      1.82176    0.16601
  197      1.84316    0.13621
  198      1.88636    0.09059
  199      1.88949    0.08792
  200      1.92800    0.06067
  201      1.93126    0.05879
  202      1.94741    0.05024
  203      2.00925    0.02739
  204      2.10987    0.01010
  205      2.15715    0.00631
  206      2.22307    0.00327
  207      2.24675    0.00258
  208      2.27892    0.00187
  209      2.43686    0.00039
  210      2.44178    0.00037
  211      2.48850    0.00023
  212      2.50571    0.00019
  213      2.52374    0.00016
  214      2.58484    0.00009
  215      2.70608    0.00003
  216      2.72830    0.00002
  217      2.73284    0.00002
  218      2.81685    0.00001
  219      2.83426    0.00001
  220      2.85747    0.00001
  221      2.89413    0.00000
  222      2.98596    0.00000
  223      3.01120    0.00000
  224      4.90593    0.00000
  225      5.74381    0.00000
  226      6.19633    0.00000
  227      6.78915    0.00000
  228      7.38172    0.00000
  229      7.68601    0.00000
  230      7.74347    0.00000
  231      7.95645    0.00000
  232      8.26062    0.00000
  233      8.47053    0.00000
  234      8.59820    0.00000
  235      8.89671    0.00000
  236      9.86552    0.00000
  237     10.04501    0.00000
  238     10.07328    0.00000
  239     10.13058    0.00000
  240     10.43963    0.00000
  241     10.73969    0.00000
  242     10.82246    0.00000
  243     10.91016    0.00000
  244     10.95826    0.00000
  245     10.99062    0.00000
  246     11.01249    0.00000
  247     11.22147    0.00000
  248     11.26778    0.00000
  249     11.42383    0.00000
  250     11.55747    0.00000
  251     11.66295    0.00000
  252     11.73206    0.00000
  253     11.88617    0.00000
  254     11.91747    0.00000
  255     11.94259    0.00000
  256     12.02274    0.00000
  257     12.05509    0.00000
  258     12.24631    0.00000
  259     12.30046    0.00000
  260     12.36010    0.00000
  261     12.38535    0.00000
  262     12.49727    0.00000
  263     12.50658    0.00000
  264     12.53080    0.00000
  265     12.58996    0.00000
  266     12.64746    0.00000
  267     12.66032    0.00000
  268     12.71015    0.00000
  269     12.75395    0.00000
  270     12.83454    0.00000
  271     13.04415    0.00000
  272     13.06507    0.00000
  273     13.15827    0.00000
  274     13.26327    0.00000
  275     13.26882    0.00000
  276     13.32821    0.00000
  277     13.39390    0.00000
  278     13.45418    0.00000
  279     13.50401    0.00000
  280     13.70200    0.00000
  281     14.02142    0.00000
  282     14.07536    0.00000
  283     14.22546    0.00000
  284     14.38429    0.00000
  285     14.40993    0.00000
  286     14.49631    0.00000
  287     14.53683    0.00000

Timing:                              incl.     excl.
-----------------------------------------------------------
Hamiltonian:                         7.991     0.000   0.0% |
 Atomic:                             3.164     0.005   0.0% |
  XC Correction:                     3.159     3.159   0.0% |
 Calculate atomic Hamiltonians:      0.031     0.031   0.0% |
 Communicate:                        0.000     0.000   0.0% |
 Hartree integrate/restrict:         0.020     0.020   0.0% |
 Initialize Hamiltonian:             0.000     0.000   0.0% |
 Poisson:                            4.134     4.134   0.1% |
 XC 3D grid:                         0.637     0.637   0.0% |
 vbar:                               0.005     0.005   0.0% |
LCAO initialization:                26.926     0.352   0.0% |
 LCAO eigensolver:                   2.097     0.000   0.0% |
  Calculate projections:             0.023     0.023   0.0% |
  DenseAtomicCorrection:             0.022     0.022   0.0% |
  Distribute overlap matrix:         0.000     0.000   0.0% |
  Orbital Layouts:                   0.060     0.060   0.0% |
  Potential matrix:                  1.992     1.992   0.0% |
 LCAO to grid:                      23.108    23.108   0.3% |
 Set positions (LCAO WFS):           1.368     0.000   0.0% |
  Basic WFS set positions:           0.001     0.001   0.0% |
  Basis functions set positions:     0.000     0.000   0.0% |
  TCI: Calculate S, T, P:            1.366     1.366   0.0% |
SCF-cycle:                        7388.119     0.159   0.0% |
 Davidson:                        6300.246   992.327  13.4% |----|
  Apply hamiltonian:               194.515   194.515   2.6% ||
  Subspace diag:                  1824.690     0.041   0.0% |
   calc_h_matrix:                  740.953   547.101   7.4% |--|
    Apply hamiltonian:             193.853   193.853   2.6% ||
   diagonalize:                      4.565     4.565   0.1% |
   rotate_psi:                    1079.131  1079.131  14.5% |-----|
  calc. matrices:                 2179.561  1985.310  26.7% |----------|
   Apply hamiltonian:              194.252   194.252   2.6% ||
  diagonalize:                      19.802    19.802   0.3% |
  rotate_psi:                     1089.350  1089.350  14.7% |-----|
 Density:                           21.443     0.006   0.0% |
  Atomic density matrices:           1.224     1.224   0.0% |
  Mix:                              10.029    10.029   0.1% |
  Multipole moments:                 0.235     0.235   0.0% |
  Pseudo density:                    9.949     9.944   0.1% |
   Symmetrize density:               0.005     0.005   0.0% |
 Hamiltonian:                     1059.151     0.028   0.0% |
  Atomic:                          473.994     0.996   0.0% |
   XC Correction:                  472.998   472.998   6.4% |--|
  Calculate atomic Hamiltonians:     6.269     6.269   0.1% |
  Communicate:                       0.002     0.002   0.0% |
  Hartree integrate/restrict:        4.147     4.147   0.1% |
  Poisson:                         438.576   438.576   5.9% |-|
  XC 3D grid:                      134.942   134.942   1.8% ||
  vbar:                              1.194     1.194   0.0% |
 Orthonormalize:                     7.120     0.000   0.0% |
  calc_s_matrix:                     2.020     2.020   0.0% |
  inverse-cholesky:                  0.004     0.004   0.0% |
  projections:                       1.848     1.848   0.0% |
  rotate_psi_s:                      3.247     3.247   0.0% |
Set symmetry:                        0.001     0.001   0.0% |
Other:                               1.272     1.272   0.0% |
-----------------------------------------------------------
Total:                                      7424.309 100.0%

Memory usage: 1.07 GiB
Date: Thu Mar 28 10:14:43 2019
