
  ___ ___ ___ _ _ _  
 |   |   |_  | | | | 
 | | | | | . | | | | 
 |__ |  _|___|_____|  1.4.0
 |___|_|             

User:   murakami@tssm1.eng.shizuoka.ac.jp
Date:   Tue Mar 26 18:25:23 2019
Arch:   x86_64
Pid:    31289
Python: 3.6.5
gpaw:   /home/murakami/.local/lib/python3.6/site-packages/gpaw
_gpaw:  /home/murakami/.local/lib/python3.6/site-packages/
        _gpaw.cpython-36m-x86_64-linux-gnu.so
ase:    /home/murakami/.local/lib/python3.6/site-packages/ase (version 3.16.2)
numpy:  /home/murakami/.local/lib/python3.6/site-packages/numpy (version 1.15.2)
scipy:  /home/murakami/.local/lib/python3.6/site-packages/scipy (version 1.1.0)
units:  Angstrom and eV
cores:  1

Input parameters:
  kpts: {size: (1, 1, 1)}
  maxiter: 300
  xc: PBE

System changes: positions, numbers, cell, pbc, initial_charges, initial_magmoms 

Initialize ...

Fe-setup:
  name: Iron
  id: 37abbd8d6c3c35915a9b583b742da910
  Z: 26
  valence: 8
  core: 18
  charge: 0.0
  file: /home/murakami/Public/gpaw-setups-0.9.20000/Fe.PBE.gz
  cutoffs: 1.06(comp), 2.06(filt), 2.67(core), lmax=2
  valence states:
                energy  radius
    4s(2.00)    -5.291   1.164
    4p(0.00)    -1.326   1.058
    3d(6.00)    -7.505   1.058
    *s          21.920   1.164
    *p          25.885   1.058
    *d          19.706   1.058

  Using partial waves for Fe as LCAO basis

O-setup:
  name: Oxygen
  id: 32ecd46bf208036f09c70b0ec9a88b78
  Z: 8
  valence: 6
  core: 2
  charge: 0.0
  file: /home/murakami/Public/gpaw-setups-0.9.20000/O.PBE.gz
  cutoffs: 0.67(comp), 1.17(filt), 0.83(core), lmax=2
  valence states:
                energy  radius
    2s(2.00)   -23.961   0.688
    2p(4.00)    -9.029   0.598
    *s           3.251   0.688
    *p          18.182   0.598
    *d           0.000   0.619

  Using partial waves for O as LCAO basis

F-setup:
  name: Fluorine
  id: 9cd46ba2a61e170ad72278be75b55cc0
  Z: 9
  valence: 7
  core: 2
  charge: 0.0
  file: /home/murakami/Public/gpaw-setups-0.9.20000/F.PBE.gz
  cutoffs: 0.64(comp), 1.14(filt), 0.74(core), lmax=2
  valence states:
                energy  radius
    2s(2.00)   -29.898   0.635
    2p(5.00)   -11.110   0.635
    *s          -2.687   0.635
    *p          16.102   0.635
    *d           0.000   0.635

  Using partial waves for F as LCAO basis

Reference energy: -319034.472395

Spin-paired calculation

Occupation numbers:
  Fermi-Dirac: width=0.1000 eV

Convergence criteria:
  Maximum total energy change: 0.0005 eV / electron
  Maximum integral of absolute density change: 0.0001 electrons
  Maximum integral of absolute eigenstate change: 4e-08 eV^2
  Maximum number of iterations: 300

Symmetries present (total): 1

  ( 1  0  0)
  ( 0  1  0)
  ( 0  0  1)

1 k-point (Gamma)
1 k-point in the irreducible part of the Brillouin zone
       k-points in crystal coordinates                weights
   0:     0.00000000    0.00000000    0.00000000          1/1

Wave functions: Uniform real-space grid
  Kinetic energy operator: 8*3+1=25 point O(h^6) finite-difference Laplacian
  ScaLapack parameters: grid=1x1, blocksize=None 

Eigensolver
   Davidson(niter=1, smin=None, normalize=True) 

Densities:
  Coarse grid: 28*24*52 grid
  Fine grid: 56*48*104 grid
  Total Charge: 0.000000 

Density mixing:
  Method: separate
  Backend: pulay
  Linear mixing parameter: 0.05
  Mixing with 5 old densities
  Damping of long wave oscillations: 50 

Hamiltonian:
  XC and Coulomb potentials evaluated on a 56*48*104 grid
  Using the PBE Exchange-Correlation functional
  Interpolation: tri-quintic (5. degree polynomial)
  Poisson solver: Jacobi solver with 4 multi-grid levels
    Coarsest grid: 7 x 6 x 13 points
    Stencil: 8*3+1=25 point O(h^6) finite-difference Laplacian
    Max iterations: 1000
    Tolerance: 2.000000e-10 

Memory estimate:
  Process memory now: 323.93 MiB
  Calculator: 140.56 MiB
    Density: 46.58 MiB
      Arrays: 6.93 MiB
      Localized functions: 36.98 MiB
      Mixer: 2.67 MiB
    Hamiltonian: 12.50 MiB
      Arrays: 4.53 MiB
      XC: 0.00 MiB
      Poisson: 5.17 MiB
      vbar: 2.80 MiB
    Wavefunctions: 81.48 MiB
      Arrays psit_nG: 36.26 MiB
      Eigensolver: 39.01 MiB
      Projections: 0.37 MiB
      Projectors: 5.85 MiB

Total number of cores used: 1

Number of atoms: 24
Number of atomic orbitals: 136
Number of bands in calculation: 136
Bands to converge: occupied states only
Number of valence electrons: 174

... initialized

Initializing position-dependent things.

Density initialized from atomic densities
Creating initial wave functions:
  136 bands from LCAO basis set

                                 
                                 
                                 
                                 
                Fe               
                     O           
                      Fe         
          FF   F    Fe           
                      F          
           Fe                    
           F       F             
              F        Fe        
               Fe                
                                 
             FeF FO   F          
                                 
       F          Fe             
            F     F              
                                 
                                 
                                 
                                 
                                 

Positions:
   0 Fe     1.416738    1.185583    7.932973    ( 0.0000,  0.0000,  0.0000)
   1 Fe     1.460755    3.585258    2.480778    ( 0.0000,  0.0000,  0.0000)
   2 Fe     2.953178    1.168742    5.026098    ( 0.0000,  0.0000,  0.0000)
   3 Fe     2.953178    3.602099   10.472229    ( 0.0000,  0.0000,  0.0000)
   4 Fe     4.323386    1.103376    2.289291    ( 0.0000,  0.0000,  0.0000)
   5 Fe     4.323386    3.667465    7.735421    ( 0.0000,  0.0000,  0.0000)
   6 Fe     5.681193    1.151547   10.071727    ( 0.0000,  0.0000,  0.0000)
   7 Fe     5.681193    3.619294    4.625596    ( 0.0000,  0.0000,  0.0000)
   8 O      4.465826    0.278989    3.929538    ( 0.0000,  0.0000,  0.0000)
   9 O      4.418573    4.491852    9.382179    ( 0.0000,  0.0000,  0.0000)
  10 F      0.078582    0.274591    1.980126    ( 0.0000,  0.0000,  0.0000)
  11 F      0.078582    4.496250    7.426257    ( 0.0000,  0.0000,  0.0000)
  12 F      1.274802    2.144212    6.041710    ( 0.0000,  0.0000,  0.0000)
  13 F      1.274802    2.626629    0.702956    ( 0.0000,  0.0000,  0.0000)
  14 F      1.601658    0.246877    9.822399    ( 0.0000,  0.0000,  0.0000)
  15 F      1.601658    4.523964    4.376269    ( 0.0000,  0.0000,  0.0000)
  16 F      2.763996    2.163720    3.059402    ( 0.0000,  0.0000,  0.0000)
  17 F      2.763996    2.628137    8.505532    ( 0.0000,  0.0000,  0.0000)
  18 F      2.997224    0.169842    6.930249    ( 0.0000,  0.0000,  0.0000)
  19 F      2.997224    4.600999    1.484119    ( 0.0000,  0.0000,  0.0000)
  20 F      4.143358    2.113578    0.421368    ( 0.0000,  0.0000,  0.0000)
  21 F      4.143358    2.657263    5.867498    ( 0.0000,  0.0000,  0.0000)
  22 F      5.583533    2.177913    8.158069    ( 0.0000,  0.0000,  0.0000)
  23 F      5.583533    2.592928    2.711938    ( 0.0000,  0.0000,  0.0000)

Unit cell:
           periodic     x           y           z      points  spacing
  1. axis:    yes    5.735919    0.000000   -0.790267    28     0.2049
  2. axis:    yes    0.000000    4.770841    0.000000    24     0.1988
  3. axis:    yes    0.000000    0.000000   10.892261    52     0.2075

  Lengths:   5.790103   4.770841  10.892261
  Angles:   90.000000  97.844547  90.000000

Effective grid spacing dv^(1/3) = 0.2043

                     log10-error:    total        iterations:
           time      wfs    density  energy       fermi  poisson
iter:   1  18:25:36  +1.56   +inf  -150.167895    3      17     
iter:   2  18:25:39  +0.21   +inf  -150.813420    3             
iter:   3  18:25:42  -0.39   +inf  -150.998965    2             
iter:   4  18:25:47  -0.63  -1.14  -149.273873    3      8      
iter:   5  18:25:52  -0.40  -1.18  -157.633218    3      13     
iter:   6  18:25:57  -0.30  -1.17  -147.431731    3      14     
iter:   7  18:26:02  -0.68  -1.38  -146.202777    3      13     
iter:   8  18:26:07  -1.45  -1.43  -145.963327    4      11     
iter:   9  18:26:12  -1.50  -1.44  -146.421281    4      12     
iter:  10  18:26:17  -1.41  -1.43  -146.392405    3      13     
iter:  11  18:26:24  -1.34  -1.42  -146.729127    4      14     
iter:  12  18:26:31  -1.34  -1.43  -145.765994    3      12     
iter:  13  18:26:36  -1.72  -1.49  -145.763251    4      11     
iter:  14  18:26:41  -1.49  -1.53  -146.266153    4      10     
iter:  15  18:26:46  -1.25  -1.54  -147.402163    2      14     
iter:  16  18:26:53  -1.41  -1.46  -148.136230    4      14     
iter:  17  18:27:00  -1.41  -1.45  -145.592867    4      13     
iter:  18  18:27:05  -1.54  -1.73  -146.854794    3      11     
iter:  19  18:27:10  -1.21  -1.64  -145.945735    4      12     
iter:  20  18:27:15  -1.77  -1.71  -145.687616    2      9      
iter:  21  18:27:22  -2.02  -1.77  -145.790924    3      12     
iter:  22  18:27:28  -1.91  -1.77  -145.782883    4      11     
iter:  23  18:27:35  -1.66  -1.90  -145.943495    3      12     
iter:  24  18:27:42  -1.71  -1.78  -145.965880    4      13     
iter:  25  18:27:49  -1.77  -1.90  -145.715881    3      12     
iter:  26  18:27:56  -2.07  -2.01  -145.690056    3      8      
iter:  27  18:28:03  -2.15  -2.05  -145.827820    3      11     
iter:  28  18:28:09  -2.35  -1.94  -145.560716    3      11     
iter:  29  18:28:15  -2.88  -2.18  -145.549942    3      9      
iter:  30  18:28:20  -2.90  -2.17  -145.533163    3      8      
iter:  31  18:28:25  -2.52  -2.25  -145.599119    3      9      
iter:  32  18:28:31  -2.52  -2.19  -145.605783    3      10     
iter:  33  18:28:36  -2.58  -2.22  -145.544437    3      9      
iter:  34  18:28:43  -2.67  -2.46  -145.579938    2      10     
iter:  35  18:28:49  -2.47  -2.31  -145.563599    3      10     
iter:  36  18:28:55  -2.66  -2.42  -145.522917    3      8      
iter:  37  18:29:00  -3.31  -2.66  -145.517606    2      7      
iter:  38  18:29:06  -3.43  -2.62  -145.514348    2      7      
iter:  39  18:29:13  -3.91  -2.69  -145.510999    2      6      
iter:  40  18:29:19  -4.19  -2.74  -145.511825    3      5      
iter:  41  18:29:26  -3.85  -2.74  -145.518012    2      7      
iter:  42  18:29:32  -3.71  -2.71  -145.505564    3      6      
iter:  43  18:29:36  -3.77  -2.77  -145.517895    3      5      
iter:  44  18:29:42  -3.62  -2.76  -145.517135    3      6      
iter:  45  18:29:47  -3.38  -2.81  -145.515401    3      8      
iter:  46  18:29:51  -3.77  -2.73  -145.513547    2      7      
iter:  47  18:29:56  -3.80  -2.84  -145.513389    3      6      
iter:  48  18:30:00  -3.83  -2.83  -145.517792    2      6      
iter:  49  18:30:04  -3.84  -2.93  -145.507486    3      5      
iter:  50  18:30:09  -4.11  -2.93  -145.510541    2      5      
iter:  51  18:30:13  -3.92  -3.06  -145.515328    2      7      
iter:  52  18:30:18  -3.98  -2.84  -145.510359    2      7      
iter:  53  18:30:22  -4.26  -3.03  -145.511422    2      5      
iter:  54  18:30:26  -4.31  -3.07  -145.506623    2      5      
iter:  55  18:30:31  -4.28  -3.14  -145.513361    2      4      
iter:  56  18:30:35  -4.60  -3.10  -145.509712    2      4      
iter:  57  18:30:39  -4.67  -3.22  -145.510406    2      5      
iter:  58  18:30:44  -4.66  -3.12  -145.509756    2      5      
iter:  59  18:30:48  -5.04  -3.23  -145.509279    2      4      
iter:  60  18:30:52  -5.02  -3.27  -145.511201    2      4      
iter:  61  18:30:57  -4.48  -3.27  -145.507085    2      4      
iter:  62  18:31:01  -4.45  -3.19  -145.509742    2      4      
iter:  63  18:31:05  -4.95  -3.33  -145.510254    2      4      
iter:  64  18:31:10  -4.77  -3.26  -145.509938    2      4      
iter:  65  18:31:14  -5.08  -3.33  -145.509942    2      3      
iter:  66  18:31:18  -5.36  -3.38  -145.508599    2      3      
iter:  67  18:31:25  -5.10  -3.40  -145.510658    2      5      
iter:  68  18:31:30  -4.57  -3.55  -145.508435    2      5      
iter:  69  18:31:34  -4.60  -3.28  -145.509426    2      5      
iter:  70  18:31:39  -5.09  -3.47  -145.508948    2      4      
iter:  71  18:31:44  -5.16  -4.03  -145.509265    2      3      
iter:  72  18:31:48  -5.32  -3.71  -145.509580    2      3      
iter:  73  18:31:52  -6.18  -4.08  -145.509107    2      2      
iter:  74  18:31:56  -6.77  -4.32  -145.509240    2      1      
iter:  75  18:32:01  -7.09  -4.37  -145.509275    2      2      
iter:  76  18:32:05  -7.10  -4.41  -145.509251    2      2      
iter:  77  18:32:10  -6.78  -4.41  -145.509355    2      2      
iter:  78  18:32:17  -6.87  -4.35  -145.509391    2      2      
iter:  79  18:32:25  -7.08  -4.48  -145.509278    2      2      
iter:  80  18:32:31  -6.83  -4.74  -145.509264    2      2      
iter:  81  18:32:37  -7.07  -4.58  -145.509355    2      2      
iter:  82  18:32:44  -7.65  -4.86  -145.509128    2      1      

Converged after 82 iterations.

Dipole moment: (-1.512181, 2.890387, -1.522667) |e|*Ang

Energy contributions relative to reference atoms: (reference = -319034.472395)

Kinetic:       +119.827207
Potential:     -133.414610
External:        +0.000000
XC:            -138.926126
Entropy (-ST):   -1.200950
Local:           +7.604877
--------------------------
Free energy:   -146.109603
Extrapolated:  -145.509128

Fermi level: 3.71858

 Band  Eigenvalues  Occupancy
    0    -20.67038    2.00000
    1    -20.59126    2.00000
    2    -20.35952    2.00000
    3    -20.29537    2.00000
    4    -20.28642    2.00000
    5    -20.25964    2.00000
    6    -20.18584    2.00000
    7    -20.15320    2.00000
    8    -20.14535    2.00000
    9    -20.09013    2.00000
   10    -20.00188    2.00000
   11    -19.94511    2.00000
   12    -19.83566    2.00000
   13    -19.83244    2.00000
   14    -14.58321    2.00000
   15    -14.55438    2.00000
   16     -4.18219    2.00000
   17     -3.83357    2.00000
   18     -3.41237    2.00000
   19     -3.26808    2.00000
   20     -3.26144    2.00000
   21     -3.09097    2.00000
   22     -3.01221    2.00000
   23     -2.98925    2.00000
   24     -2.92677    2.00000
   25     -2.89466    2.00000
   26     -2.78098    2.00000
   27     -2.62951    2.00000
   28     -2.61641    2.00000
   29     -2.56002    2.00000
   30     -2.50824    2.00000
   31     -2.43634    2.00000
   32     -2.40690    2.00000
   33     -2.33760    2.00000
   34     -2.30718    2.00000
   35     -2.28492    2.00000
   36     -2.25949    2.00000
   37     -2.21729    2.00000
   38     -2.10280    2.00000
   39     -2.07215    2.00000
   40     -2.05546    2.00000
   41     -2.00035    2.00000
   42     -1.97287    2.00000
   43     -1.89346    2.00000
   44     -1.75489    2.00000
   45     -1.68702    2.00000
   46     -1.48000    2.00000
   47     -1.42811    2.00000
   48     -1.36055    2.00000
   49     -1.26717    2.00000
   50     -1.12426    2.00000
   51     -1.09004    2.00000
   52     -1.03799    2.00000
   53     -0.99838    2.00000
   54     -0.86660    2.00000
   55     -0.79767    2.00000
   56     -0.74432    2.00000
   57     -0.70972    2.00000
   58     -0.55373    2.00000
   59     -0.49428    2.00000
   60     -0.40939    2.00000
   61     -0.33083    2.00000
   62      0.44408    2.00000
   63      0.47155    2.00000
   64      2.93527    1.99921
   65      2.95128    1.99907
   66      3.02207    1.99811
   67      3.03122    1.99793
   68      3.04744    1.99757
   69      3.06196    1.99719
   70      3.09546    1.99607
   71      3.13321    1.99428
   72      3.17507    1.99132
   73      3.18788    1.99013
   74      3.23885    1.98363
   75      3.24973    1.98177
   76      3.29617    1.97115
   77      3.31194    1.96630
   78      3.34088    1.95524
   79      3.39482    1.92445
   80      3.40285    1.91839
   81      3.41859    1.90513
   82      3.46225    1.85692
   83      3.50935    1.78031
   84      3.59244    1.55852
   85      3.61034    1.49389
   86      3.64934    1.33300
   87      3.74503    0.86852
   88      3.75908    0.80022
   89      3.87910    0.33451
   90      3.97935    0.13728
   91      3.98939    0.12499
   92      4.05128    0.06931
   93      4.10064    0.04289
   94      4.18752    0.01822
   95      4.22219    0.01291
   96      4.48752    0.00091
   97      4.52663    0.00062
   98      4.87588    0.00002
   99      4.97196    0.00001
  100      5.02657    0.00000
  101      5.04479    0.00000
  102      5.16503    0.00000
  103      5.31239    0.00000
  104      6.23081    0.00000
  105      7.98462    0.00000
  106      8.53235    0.00000
  107     11.00054    0.00000
  108     11.29954    0.00000
  109     11.37115    0.00000
  110     11.53321    0.00000
  111     11.71647    0.00000
  112     11.95022    0.00000
  113     12.07258    0.00000
  114     12.27441    0.00000
  115     12.86000    0.00000
  116     13.21868    0.00000
  117     13.30436    0.00000
  118     13.68530    0.00000
  119     13.95729    0.00000
  120     14.59377    0.00000
  121     15.02075    0.00000
  122     15.10536    0.00000
  123     15.20997    0.00000
  124     15.37002    0.00000
  125     15.75090    0.00000
  126     15.83242    0.00000
  127     15.89614    0.00000
  128     15.94102    0.00000
  129     16.02136    0.00000
  130     16.15734    0.00000
  131     16.19954    0.00000
  132     16.25239    0.00000
  133     16.34786    0.00000
  134     16.39637    0.00000
  135     16.53654    0.00000

Timing:                              incl.     excl.
-----------------------------------------------------------
Hamiltonian:                         1.984     0.000   0.0% |
 Atomic:                             1.077     0.003   0.0% |
  XC Correction:                     1.075     1.075   0.2% |
 Calculate atomic Hamiltonians:      0.013     0.013   0.0% |
 Communicate:                        0.000     0.000   0.0% |
 Hartree integrate/restrict:         0.004     0.004   0.0% |
 Initialize Hamiltonian:             0.001     0.001   0.0% |
 Poisson:                            0.663     0.663   0.2% |
 XC 3D grid:                         0.223     0.223   0.1% |
 vbar:                               0.003     0.003   0.0% |
LCAO initialization:                 6.201     0.232   0.1% |
 LCAO eigensolver:                   0.961     0.000   0.0% |
  Calculate projections:             0.003     0.003   0.0% |
  DenseAtomicCorrection:             0.003     0.003   0.0% |
  Distribute overlap matrix:         0.000     0.000   0.0% |
  Orbital Layouts:                   0.009     0.009   0.0% |
  Potential matrix:                  0.946     0.946   0.2% |
 LCAO to grid:                       4.367     4.367   1.0% |
 Set positions (LCAO WFS):           0.640     0.000   0.0% |
  Basic WFS set positions:           0.001     0.001   0.0% |
  Basis functions set positions:     0.000     0.000   0.0% |
  TCI: Calculate S, T, P:            0.639     0.639   0.1% |
SCF-cycle:                         431.433     0.070   0.0% |
 Davidson:                         283.487    83.743  19.0% |-------|
  Apply hamiltonian:                10.045    10.045   2.3% ||
  Subspace diag:                    68.969     0.013   0.0% |
   calc_h_matrix:                   29.801    19.328   4.4% |-|
    Apply hamiltonian:              10.473    10.473   2.4% ||
   diagonalize:                      0.376     0.376   0.1% |
   rotate_psi:                      38.780    38.780   8.8% |---|
  calc. matrices:                   79.652    69.577  15.8% |-----|
   Apply hamiltonian:               10.075    10.075   2.3% ||
  diagonalize:                       1.567     1.567   0.4% |
  rotate_psi:                       39.512    39.512   9.0% |---|
 Density:                            2.970     0.002   0.0% |
  Atomic density matrices:           0.207     0.207   0.0% |
  Mix:                               1.920     1.920   0.4% |
  Multipole moments:                 0.048     0.048   0.0% |
  Pseudo density:                    0.793     0.791   0.2% |
   Symmetrize density:               0.002     0.002   0.0% |
 Hamiltonian:                      144.248     0.009   0.0% |
  Atomic:                           96.301     0.231   0.1% |
   XC Correction:                   96.070    96.070  21.8% |--------|
  Calculate atomic Hamiltonians:     1.225     1.225   0.3% |
  Communicate:                       0.001     0.001   0.0% |
  Hartree integrate/restrict:        0.601     0.601   0.1% |
  Poisson:                          26.070    26.070   5.9% |-|
  XC 3D grid:                       19.804    19.804   4.5% |-|
  vbar:                              0.237     0.237   0.1% |
 Orthonormalize:                     0.659     0.000   0.0% |
  calc_s_matrix:                     0.149     0.149   0.0% |
  inverse-cholesky:                  0.001     0.001   0.0% |
  projections:                       0.287     0.287   0.1% |
  rotate_psi_s:                      0.221     0.221   0.1% |
Set symmetry:                        0.001     0.001   0.0% |
Other:                               0.883     0.883   0.2% |
-----------------------------------------------------------
Total:                                       440.501 100.0%

Memory usage: 328.06 MiB
Date: Tue Mar 26 18:32:44 2019
