
  ___ ___ ___ _ _ _  
 |   |   |_  | | | | 
 | | | | | . | | | | 
 |__ |  _|___|_____|  1.4.0
 |___|_|             

User:   murakami@tssm1.eng.shizuoka.ac.jp
Date:   Wed Mar 27 06:47:21 2019
Arch:   x86_64
Pid:    31289
Python: 3.6.5
gpaw:   /home/murakami/.local/lib/python3.6/site-packages/gpaw
_gpaw:  /home/murakami/.local/lib/python3.6/site-packages/
        _gpaw.cpython-36m-x86_64-linux-gnu.so
ase:    /home/murakami/.local/lib/python3.6/site-packages/ase (version 3.16.2)
numpy:  /home/murakami/.local/lib/python3.6/site-packages/numpy (version 1.15.2)
scipy:  /home/murakami/.local/lib/python3.6/site-packages/scipy (version 1.1.0)
units:  Angstrom and eV
cores:  1

Input parameters:
  kpts: {size: (1, 1, 1)}
  maxiter: 300
  xc: PBE

System changes: positions, numbers, cell, pbc, initial_charges, initial_magmoms 

Initialize ...

Fe-setup:
  name: Iron
  id: 37abbd8d6c3c35915a9b583b742da910
  Z: 26
  valence: 8
  core: 18
  charge: 0.0
  file: /home/murakami/Public/gpaw-setups-0.9.20000/Fe.PBE.gz
  cutoffs: 1.06(comp), 2.06(filt), 2.67(core), lmax=2
  valence states:
                energy  radius
    4s(2.00)    -5.291   1.164
    4p(0.00)    -1.326   1.058
    3d(6.00)    -7.505   1.058
    *s          21.920   1.164
    *p          25.885   1.058
    *d          19.706   1.058

  Using partial waves for Fe as LCAO basis

O-setup:
  name: Oxygen
  id: 32ecd46bf208036f09c70b0ec9a88b78
  Z: 8
  valence: 6
  core: 2
  charge: 0.0
  file: /home/murakami/Public/gpaw-setups-0.9.20000/O.PBE.gz
  cutoffs: 0.67(comp), 1.17(filt), 0.83(core), lmax=2
  valence states:
                energy  radius
    2s(2.00)   -23.961   0.688
    2p(4.00)    -9.029   0.598
    *s           3.251   0.688
    *p          18.182   0.598
    *d           0.000   0.619

  Using partial waves for O as LCAO basis

F-setup:
  name: Fluorine
  id: 9cd46ba2a61e170ad72278be75b55cc0
  Z: 9
  valence: 7
  core: 2
  charge: 0.0
  file: /home/murakami/Public/gpaw-setups-0.9.20000/F.PBE.gz
  cutoffs: 0.64(comp), 1.14(filt), 0.74(core), lmax=2
  valence states:
                energy  radius
    2s(2.00)   -29.898   0.635
    2p(5.00)   -11.110   0.635
    *s          -2.687   0.635
    *p          16.102   0.635
    *d           0.000   0.635

  Using partial waves for F as LCAO basis

Reference energy: -648925.267931

Spin-paired calculation

Occupation numbers:
  Fermi-Dirac: width=0.1000 eV

Convergence criteria:
  Maximum total energy change: 0.0005 eV / electron
  Maximum integral of absolute density change: 0.0001 electrons
  Maximum integral of absolute eigenstate change: 4e-08 eV^2
  Maximum number of iterations: 300

Symmetries present (total): 1

  ( 1  0  0)
  ( 0  1  0)
  ( 0  0  1)

1 k-point (Gamma)
1 k-point in the irreducible part of the Brillouin zone
       k-points in crystal coordinates                weights
   0:     0.00000000    0.00000000    0.00000000          1/1

Wave functions: Uniform real-space grid
  Kinetic energy operator: 8*3+1=25 point O(h^6) finite-difference Laplacian
  ScaLapack parameters: grid=1x1, blocksize=None 

Eigensolver
   Davidson(niter=1, smin=None, normalize=True) 

Densities:
  Coarse grid: 48*28*76 grid
  Fine grid: 96*56*152 grid
  Total Charge: 0.000000 

Density mixing:
  Method: separate
  Backend: pulay
  Linear mixing parameter: 0.05
  Mixing with 5 old densities
  Damping of long wave oscillations: 50 

Hamiltonian:
  XC and Coulomb potentials evaluated on a 96*56*152 grid
  Using the PBE Exchange-Correlation functional
  Interpolation: tri-quintic (5. degree polynomial)
  Poisson solver: Jacobi solver with 4 multi-grid levels
    Coarsest grid: 12 x 7 x 19 points
    Stencil: 8*3+1=25 point O(h^6) finite-difference Laplacian
    Max iterations: 1000
    Tolerance: 2.000000e-10 

Memory estimate:
  Process memory now: 1097.44 MiB
  Calculator: 625.81 MiB
    Density: 116.13 MiB
      Arrays: 20.26 MiB
      Localized functions: 88.08 MiB
      Mixer: 7.79 MiB
    Hamiltonian: 35.03 MiB
      Arrays: 13.25 MiB
      XC: 0.00 MiB
      Poisson: 15.10 MiB
      vbar: 6.68 MiB
    Wavefunctions: 474.64 MiB
      Arrays psit_nG: 224.44 MiB
      Eigensolver: 234.67 MiB
      Projections: 1.66 MiB
      Projectors: 13.87 MiB

Total number of cores used: 1

Number of atoms: 52
Number of atomic orbitals: 288
Number of bands in calculation: 288
Bands to converge: occupied states only
Number of valence electrons: 376

... initialized

Initializing position-dependent things.

Density initialized from atomic densities
Creating initial wave functions:
  288 bands from LCAO basis set

                                           
                                           
                                           
                                           
                          Fe               
              F       F                    
             Fe              O             
               O        F       F          
                            Fe             
         F       F        F                
               Fe                          
            FFe    F       F               
              F        F     F             
         F     F       Fe                  
                        F   Fe             
             Fe  O        F                
               Fe Fe            F          
            F      F   Fe  O               
              F       F     Fe             
                          Fe               
         F   FeF        F                  
                                           
          F     F Fe     F                 
            F                              
                    F     F Fe             
                                           
                                           
                                           
                                           
                                           

Positions:
   0 Fe     1.542848    2.593853    2.677597    ( 0.0000,  0.0000,  0.0000)
   1 Fe     1.542848    2.765614   10.155423    ( 0.0000,  0.0000,  0.0000)
   2 Fe     6.243444    5.273587    2.635533    ( 0.0000,  0.0000,  0.0000)
   3 Fe     6.243444    0.085880   10.113358    ( 0.0000,  0.0000,  0.0000)
   4 Fe     1.648330    2.534235   14.537576    ( 0.0000,  0.0000,  0.0000)
   5 Fe     1.648330    2.825232    6.968178    ( 0.0000,  0.0000,  0.0000)
   6 Fe     6.348925    5.213968   14.495512    ( 0.0000,  0.0000,  0.0000)
   7 Fe     6.348925    0.145499    7.017686    ( 0.0000,  0.0000,  0.0000)
   8 Fe     3.117708    0.157643   12.271643    ( 0.0000,  0.0000,  0.0000)
   9 Fe     3.117708    5.201824    4.793817    ( 0.0000,  0.0000,  0.0000)
  10 Fe     7.818303    2.837377   12.229578    ( 0.0000,  0.0000,  0.0000)
  11 Fe     7.818303    2.522090    4.751753    ( 0.0000,  0.0000,  0.0000)
  12 Fe     3.057136    0.023153    7.706434    ( 0.0000,  0.0000,  0.0000)
  13 Fe     3.136416    5.336314    0.227899    ( 0.0000,  0.0000,  0.0000)
  14 Fe     7.837011    2.702886    7.663660    ( 0.0000,  0.0000,  0.0000)
  15 Fe     7.837011    2.656581    0.185834    ( 0.0000,  0.0000,  0.0000)
  16 O      2.907450    1.433164   13.814659    ( 0.0000,  0.0000,  0.0000)
  17 O      2.907450    3.932064    6.254742    ( 0.0000,  0.0000,  0.0000)
  18 O      7.608045    4.112898   13.772595    ( 0.0000,  0.0000,  0.0000)
  19 O      7.608045    1.246569    6.294769    ( 0.0000,  0.0000,  0.0000)
  20 F      0.036298    1.976797    3.648091    ( 0.0000,  0.0000,  0.0000)
  21 F     -0.016706    3.382670   11.126391    ( 0.0000,  0.0000,  0.0000)
  22 F      4.736893    4.656530    3.606027    ( 0.0000,  0.0000,  0.0000)
  23 F      4.736893    0.720479   11.083852    ( 0.0000,  0.0000,  0.0000)
  24 F      0.243622    2.119010    8.659520    ( 0.0000,  0.0000,  0.0000)
  25 F      0.243622    3.240457    1.181694    ( 0.0000,  0.0000,  0.0000)
  26 F      4.944218    4.798743    8.617455    ( 0.0000,  0.0000,  0.0000)
  27 F      4.944218    0.560724    1.139630    ( 0.0000,  0.0000,  0.0000)
  28 F      1.655719    1.147837    1.234055    ( 0.0000,  0.0000,  0.0000)
  29 F      1.655719    4.211630    8.711881    ( 0.0000,  0.0000,  0.0000)
  30 F      6.356314    3.774303    1.191991    ( 0.0000,  0.0000,  0.0000)
  31 F      6.356314    1.531896    8.669816    ( 0.0000,  0.0000,  0.0000)
  32 F      1.648612    1.090357   11.114345    ( 0.0000,  0.0000,  0.0000)
  33 F      1.706072    4.261484    3.565923    ( 0.0000,  0.0000,  0.0000)
  34 F      6.406667    3.778012   11.001684    ( 0.0000,  0.0000,  0.0000)
  35 F      6.406667    1.589377    3.523859    ( 0.0000,  0.0000,  0.0000)
  36 F      1.776853    1.081862    6.320255    ( 0.0000,  0.0000,  0.0000)
  37 F      1.776853    4.277605   13.798081    ( 0.0000,  0.0000,  0.0000)
  38 F      6.477449    3.761596    6.396041    ( 0.0000,  0.0000,  0.0000)
  39 F      6.477449    1.597871   13.756016    ( 0.0000,  0.0000,  0.0000)
  40 F      2.759033    1.853979    8.623789    ( 0.0000,  0.0000,  0.0000)
  41 F      2.731911    3.500439    1.146206    ( 0.0000,  0.0000,  0.0000)
  42 F      7.551648    4.538761    8.686069    ( 0.0000,  0.0000,  0.0000)
  43 F      7.459629    0.820706    1.103899    ( 0.0000,  0.0000,  0.0000)
  44 F      2.849557    1.637912    3.683786    ( 0.0000,  0.0000,  0.0000)
  45 F      2.849557    3.721555   11.161611    ( 0.0000,  0.0000,  0.0000)
  46 F      7.550153    4.317646    3.641721    ( 0.0000,  0.0000,  0.0000)
  47 F      7.550153    1.041821   11.119547    ( 0.0000,  0.0000,  0.0000)
  48 F      4.613296    0.721642    6.284284    ( 0.0000,  0.0000,  0.0000)
  49 F      4.613296    4.637825   13.762110    ( 0.0000,  0.0000,  0.0000)
  50 F      9.274030    3.401375    6.169398    ( 0.0000,  0.0000,  0.0000)
  51 F      9.313892    1.958092   13.720045    ( 0.0000,  0.0000,  0.0000)

Unit cell:
           periodic     x           y           z      points  spacing
  1. axis:    yes    9.401191    0.000000   -0.084129    48     0.1959
  2. axis:    yes    0.000000    5.359467    0.000000    28     0.1914
  3. axis:    yes    0.000000    0.000000   14.955651    76     0.1968

  Lengths:   9.401567   5.359467  14.955651
  Angles:   90.000000  90.512712  90.000000

Effective grid spacing dv^(1/3) = 0.1947

                     log10-error:    total        iterations:
           time      wfs    density  energy       fermi  poisson
iter:   1  06:48:25  +1.49   +inf  -311.597312    3      18     
iter:   2  06:49:00  +0.30   +inf  -313.164339    3             
iter:   3  06:49:36  -0.29   +inf  -313.592293    2             
iter:   4  06:50:17  -0.47  -1.13  -310.634987    3      15     
iter:   5  06:50:54  -0.43  -1.16  -325.261654    3      27     
iter:   6  06:51:37  -0.13  -1.12  -332.333906    35     33     
iter:   7  06:52:14  -0.24  -1.23  -315.782426    4      34     
iter:   8  06:52:54  -0.61  -1.28  -306.138786    4      32     
iter:   9  06:53:39  -0.86  -1.35  -305.340698    4      29     
iter:  10  06:54:23  -1.09  -1.36  -300.485189    3      22     
iter:  11  06:55:12  -1.71  -1.44  -300.620428    4      20     
iter:  12  06:55:47  -1.57  -1.46  -302.524479    3      27     
iter:  13  06:56:25  -1.43  -1.42  -305.004181    4      29     
iter:  14  06:56:59  -1.24  -1.40  -302.950978    4      26     
iter:  15  06:57:33  -1.22  -1.46  -302.567691    4      27     
iter:  16  06:58:08  -0.97  -1.51  -305.763478    4      30     
iter:  17  06:58:47  -1.21  -1.41  -301.493583    4      29     
iter:  18  06:59:26  -1.66  -1.56  -300.791046    3      28     
iter:  19  07:00:06  -1.87  -1.57  -300.253918    3      25     
iter:  20  07:00:43  -2.04  -1.59  -299.740875    3      20     
iter:  21  07:01:16  -2.31  -1.63  -300.070495    3      22     
iter:  22  07:01:51  -2.18  -1.63  -299.824586    3      24     
iter:  23  07:02:26  -1.89  -1.65  -302.027251    4      26     
iter:  24  07:03:00  -1.41  -1.58  -303.572814    2      29     
iter:  25  07:03:35  -1.58  -1.54  -302.727801    3      29     
iter:  26  07:04:10  -1.64  -1.56  -301.830442    2      28     
iter:  27  07:04:44  -1.69  -1.61  -300.834696    3      26     
iter:  28  07:05:18  -1.90  -1.67  -300.251435    3      26     
iter:  29  07:05:52  -2.00  -1.69  -299.956361    3      18     
iter:  30  07:06:27  -2.09  -1.75  -299.699830    3      18     
iter:  31  07:07:01  -2.36  -1.79  -299.991853    3      19     
iter:  32  07:07:37  -2.23  -1.77  -300.606051    3      25     
iter:  33  07:08:12  -2.21  -1.74  -300.550021    3      26     
iter:  34  07:08:48  -1.58  -1.78  -305.804938    3      29     
iter:  35  07:09:24  -1.55  -1.51  -301.300388    3      29     
iter:  36  07:09:58  -1.79  -1.77  -300.064621    3      20     
iter:  37  07:10:33  -2.34  -1.82  -299.706989    3      18     
iter:  38  07:11:07  -3.06  -1.89  -299.591494    3      15     
iter:  39  07:11:42  -2.74  -1.92  -300.109248    3      22     
iter:  40  07:12:18  -2.17  -1.85  -301.425050    3      26     
iter:  41  07:12:54  -1.97  -1.70  -300.271364    3      27     
iter:  42  07:13:29  -2.18  -1.85  -299.885126    2      20     
iter:  43  07:14:04  -2.22  -1.92  -300.599832    3      17     
iter:  44  07:14:39  -2.14  -1.83  -299.771141    3      19     
iter:  45  07:15:13  -2.61  -1.94  -299.870221    2      19     
iter:  46  07:15:49  -2.19  -1.93  -302.264088    3      25     
iter:  47  07:16:25  -1.96  -1.69  -300.181419    3      27     
iter:  48  07:17:00  -2.34  -1.90  -299.870077    3      24     
iter:  49  07:17:36  -2.15  -1.93  -301.206474    3      24     
iter:  50  07:18:11  -2.06  -1.81  -299.616794    3      23     
iter:  51  07:18:44  -2.96  -2.03  -299.609751    3      10     
iter:  52  07:19:19  -2.42  -2.04  -300.917349    3      23     
iter:  53  07:19:55  -2.13  -1.81  -300.041715    3      25     
iter:  54  07:20:30  -2.41  -1.95  -299.832958    3      23     
iter:  55  07:21:06  -2.46  -1.99  -300.395242    3      23     
iter:  56  07:21:41  -2.33  -1.90  -299.632354    3      22     
iter:  57  07:22:14  -3.16  -2.06  -299.564633    2      9      
iter:  58  07:22:48  -2.72  -2.10  -299.959949    3      16     
iter:  59  07:23:23  -2.50  -1.98  -299.740638    3      22     
iter:  60  07:23:58  -2.75  -2.05  -299.743699    3      22     
iter:  61  07:24:33  -2.63  -2.06  -299.895320    3      22     
iter:  62  07:25:07  -2.36  -2.03  -299.926473    3      16     
iter:  63  07:25:42  -2.55  -2.03  -299.611204    3      21     
iter:  64  07:26:15  -2.86  -2.12  -299.824682    3      21     
iter:  65  07:26:48  -2.73  -2.04  -299.652250    2      21     
iter:  66  07:27:21  -3.00  -2.12  -299.592841    3      19     
iter:  67  07:27:56  -3.04  -2.16  -299.728240    3      21     
iter:  68  07:28:34  -2.74  -2.10  -299.616884    3      18     
iter:  69  07:29:06  -3.07  -2.16  -299.547827    2      13     
iter:  70  07:29:41  -3.33  -2.22  -299.651255    3      18     
iter:  71  07:30:16  -3.12  -2.16  -299.585783    3      18     
iter:  72  07:30:49  -3.26  -2.21  -299.570894    2      17     
iter:  73  07:31:22  -2.97  -2.22  -299.725948    3      15     
iter:  74  07:31:55  -2.64  -2.17  -299.785130    3      20     
iter:  75  07:32:28  -2.69  -2.15  -299.684987    3      21     
iter:  76  07:33:02  -2.89  -2.17  -299.694422    3      19     
iter:  77  07:33:43  -2.98  -2.20  -299.641163    2      19     
iter:  78  07:34:24  -3.26  -2.23  -299.550815    3      17     
iter:  79  07:35:01  -3.28  -2.32  -299.678465    3      19     
iter:  80  07:35:34  -3.05  -2.22  -299.569644    3      20     
iter:  81  07:36:11  -2.91  -2.33  -299.825616    3      19     
iter:  82  07:36:44  -2.78  -2.18  -299.686607    2      20     
iter:  83  07:37:17  -2.95  -2.29  -299.711355    3      20     
iter:  84  07:37:51  -2.75  -2.29  -299.671269    3      21     
iter:  85  07:38:23  -2.83  -2.26  -299.647762    3      13     
iter:  86  07:38:58  -2.86  -2.34  -299.626822    3      18     
iter:  87  07:39:33  -3.37  -2.34  -299.558366    3      18     
iter:  88  07:40:05  -3.87  -2.49  -299.549062    2      9      
iter:  89  07:40:37  -3.86  -2.54  -299.561903    3      8      
iter:  90  07:41:10  -3.04  -2.54  -299.720739    2      18     
iter:  91  07:41:43  -3.01  -2.30  -299.631065    3      21     
iter:  92  07:42:16  -3.26  -2.39  -299.565673    3      16     
iter:  93  07:42:57  -3.33  -2.57  -299.603074    3      16     
iter:  94  07:43:39  -3.47  -2.44  -299.544868    3      17     
iter:  95  07:44:16  -3.68  -2.63  -299.566144    2      13     
iter:  96  07:44:48  -3.73  -2.57  -299.540018    2      11     
iter:  97  07:45:22  -4.33  -2.69  -299.545366    2      5      
iter:  98  07:45:54  -4.11  -2.68  -299.548425    2      11     
iter:  99  07:46:27  -3.80  -2.65  -299.593628    3      16     
iter: 100  07:47:01  -3.54  -2.51  -299.562744    3      17     
iter: 101  07:47:34  -3.59  -2.58  -299.591849    2      17     
iter: 102  07:48:08  -3.47  -2.56  -299.548688    3      14     
iter: 103  07:48:41  -4.08  -2.70  -299.541466    2      6      
iter: 104  07:49:13  -4.28  -2.75  -299.543780    2      8      
iter: 105  07:49:45  -4.45  -2.77  -299.552869    2      10     
iter: 106  07:50:17  -3.81  -2.74  -299.573614    2      16     
iter: 107  07:50:50  -3.63  -2.59  -299.566998    2      13     
iter: 108  07:51:22  -3.61  -2.67  -299.559304    2      14     
iter: 109  07:51:54  -3.87  -2.71  -299.548527    2      8      
iter: 110  07:52:26  -4.31  -2.79  -299.541708    2      11     
iter: 111  07:53:00  -4.86  -2.88  -299.541051    2      5      
iter: 112  07:53:32  -4.30  -2.90  -299.554942    2      13     
iter: 113  07:54:13  -4.11  -2.75  -299.551402    2      14     
iter: 114  07:54:45  -4.19  -2.81  -299.546202    2      9      
iter: 115  07:55:17  -4.17  -2.89  -299.549663    2      8      
iter: 116  07:55:53  -4.07  -2.84  -299.543049    2      11     
iter: 117  07:56:42  -4.65  -2.90  -299.541780    2      7      
iter: 118  07:57:24  -4.90  -2.97  -299.542931    2      8      
iter: 119  07:58:07  -4.65  -2.95  -299.544041    2      10     
iter: 120  07:58:48  -4.51  -2.95  -299.542819    2      8      
iter: 121  07:59:29  -4.59  -2.98  -299.543919    2      6      
iter: 122  08:00:05  -4.08  -2.99  -299.557074    2      13     
iter: 123  08:00:38  -4.15  -2.78  -299.544282    2      13     
iter: 124  08:01:10  -4.62  -3.00  -299.542491    2      9      
iter: 125  08:01:43  -4.93  -3.04  -299.542337    2      8      
iter: 126  08:02:15  -4.87  -3.07  -299.541681    2      7      
iter: 127  08:02:48  -4.83  -3.09  -299.543678    2      5      
iter: 128  08:03:21  -4.58  -3.08  -299.542986    2      7      
iter: 129  08:03:54  -4.73  -3.05  -299.542836    2      9      
iter: 130  08:04:28  -4.88  -3.09  -299.542470    2      9      
iter: 131  08:05:01  -4.91  -3.09  -299.542472    2      5      
iter: 132  08:05:34  -4.82  -3.12  -299.542199    2      5      
iter: 133  08:06:07  -5.07  -3.14  -299.542104    2      6      
iter: 134  08:06:39  -5.02  -3.16  -299.541420    2      4      
iter: 135  08:07:12  -5.13  -3.17  -299.541727    2      4      
iter: 136  08:07:45  -5.06  -3.21  -299.543224    2      8      
iter: 137  08:08:18  -4.92  -3.12  -299.542389    2      7      
iter: 138  08:08:51  -4.99  -3.20  -299.541709    2      4      
iter: 139  08:09:25  -5.12  -3.21  -299.542316    2      8      
iter: 140  08:09:58  -5.03  -3.19  -299.542997    2      5      
iter: 141  08:10:31  -5.05  -3.22  -299.541280    2      5      
iter: 142  08:11:04  -5.29  -3.28  -299.542179    2      6      
iter: 143  08:11:37  -5.11  -3.22  -299.541957    2      6      
iter: 144  08:12:10  -5.08  -3.28  -299.542052    2      4      
iter: 145  08:12:44  -4.82  -3.28  -299.544932    2      10     
iter: 146  08:13:17  -4.59  -3.10  -299.542396    2      10     
iter: 147  08:13:50  -4.68  -3.29  -299.543182    2      6      
iter: 148  08:14:23  -4.89  -3.26  -299.543367    2      6      
iter: 149  08:14:56  -4.87  -3.33  -299.542946    2      6      
iter: 150  08:15:30  -4.94  -3.38  -299.542518    2      5      
iter: 151  08:16:03  -4.95  -3.33  -299.542420    2      6      
iter: 152  08:16:36  -5.05  -3.40  -299.542242    2      5      
iter: 153  08:17:09  -4.90  -3.49  -299.542974    2      9      
iter: 154  08:17:42  -4.91  -3.25  -299.542274    2      5      
iter: 155  08:18:15  -5.31  -3.45  -299.542103    2      6      
iter: 156  08:18:48  -5.22  -3.50  -299.542173    2      4      
iter: 157  08:19:21  -5.47  -3.52  -299.541718    2      4      
iter: 158  08:19:54  -5.41  -3.61  -299.541974    2      4      
iter: 159  08:20:26  -5.47  -3.53  -299.541855    2      3      
iter: 160  08:20:59  -6.17  -3.70  -299.541345    2      3      
iter: 161  08:21:32  -6.06  -3.67  -299.541583    2      3      
iter: 162  08:22:03  -5.96  -3.70  -299.541699    2      3      
iter: 163  08:22:34  -5.75  -3.69  -299.542108    2      4      
iter: 164  08:23:05  -5.74  -3.61  -299.541769    2      3      
iter: 165  08:23:36  -5.96  -3.70  -299.541722    2      3      
iter: 166  08:24:08  -6.31  -3.78  -299.541870    2      3      
iter: 167  08:24:39  -6.27  -3.76  -299.541583    2      3      
iter: 168  08:25:14  -6.45  -3.81  -299.541787    2      3      
iter: 169  08:25:45  -5.66  -3.79  -299.542737    2      5      
iter: 170  08:26:19  -5.63  -3.65  -299.542197    2      4      
iter: 171  08:26:52  -5.57  -3.85  -299.541670    2      4      
iter: 172  08:27:23  -5.65  -3.73  -299.541382    2      4      
iter: 173  08:27:55  -5.63  -3.90  -299.542057    2      4      
iter: 174  08:28:26  -6.02  -3.88  -299.541732    2      3      
iter: 175  08:28:57  -5.80  -4.01  -299.542093    2      4      
iter: 176  08:29:28  -5.85  -3.80  -299.541836    2      3      
iter: 177  08:30:02  -6.31  -4.24  -299.541811    2      3      
iter: 178  08:30:35  -6.35  -4.14  -299.541796    2      3      
iter: 179  08:31:15  -7.03  -4.20  -299.541733    2      2      
iter: 180  08:31:55  -6.62  -4.29  -299.541928    2      3      
iter: 181  08:32:30  -6.67  -4.17  -299.541752    2      2      
iter: 182  08:33:02  -6.90  -4.46  -299.541834    2      3      
iter: 183  08:33:34  -6.91  -4.34  -299.541814    2      2      
iter: 184  08:34:05  -7.17  -4.50  -299.541789    2      2      
iter: 185  08:34:39  -7.21  -4.51  -299.541815    2      2      
iter: 186  08:35:13  -7.71  -4.58  -299.541807    1      1      

Converged after 186 iterations.

Dipole moment: (-20.386678, -6.691391, 2.392719) |e|*Ang

Energy contributions relative to reference atoms: (reference = -648925.267931)

Kinetic:       +205.820931
Potential:     -239.171694
External:        +0.000000
XC:            -278.572123
Entropy (-ST):   -2.860802
Local:          +13.811480
--------------------------
Free energy:   -300.972208
Extrapolated:  -299.541807

Fermi level: 1.56880

 Band  Eigenvalues  Occupancy
    0    -22.34664    2.00000
    1    -22.28884    2.00000
    2    -22.23726    2.00000
    3    -22.12160    2.00000
    4    -22.08718    2.00000
    5    -22.05694    2.00000
    6    -21.98273    2.00000
    7    -21.97453    2.00000
    8    -21.94369    2.00000
    9    -21.90954    2.00000
   10    -21.89073    2.00000
   11    -21.87519    2.00000
   12    -21.67591    2.00000
   13    -21.62575    2.00000
   14    -21.54056    2.00000
   15    -21.53879    2.00000
   16    -21.50645    2.00000
   17    -21.47725    2.00000
   18    -21.46836    2.00000
   19    -21.41340    2.00000
   20    -21.38498    2.00000
   21    -21.35847    2.00000
   22    -21.33884    2.00000
   23    -21.32150    2.00000
   24    -21.29946    2.00000
   25    -21.28915    2.00000
   26    -21.20245    2.00000
   27    -21.18221    2.00000
   28    -21.15858    2.00000
   29    -21.13875    2.00000
   30    -21.11571    2.00000
   31    -21.08151    2.00000
   32    -17.05883    2.00000
   33    -16.97682    2.00000
   34    -16.96774    2.00000
   35    -16.96091    2.00000
   36     -5.42674    2.00000
   37     -5.34314    2.00000
   38     -5.30666    2.00000
   39     -5.28405    2.00000
   40     -5.17919    2.00000
   41     -5.14609    2.00000
   42     -5.12767    2.00000
   43     -5.04548    2.00000
   44     -4.88036    2.00000
   45     -4.81108    2.00000
   46     -4.72591    2.00000
   47     -4.65678    2.00000
   48     -4.60559    2.00000
   49     -4.58122    2.00000
   50     -4.55198    2.00000
   51     -4.50992    2.00000
   52     -4.46786    2.00000
   53     -4.45941    2.00000
   54     -4.44205    2.00000
   55     -4.41347    2.00000
   56     -4.39522    2.00000
   57     -4.39143    2.00000
   58     -4.36592    2.00000
   59     -4.34795    2.00000
   60     -4.30176    2.00000
   61     -4.28920    2.00000
   62     -4.26770    2.00000
   63     -4.25011    2.00000
   64     -4.20267    2.00000
   65     -4.19274    2.00000
   66     -4.17168    2.00000
   67     -4.14487    2.00000
   68     -4.10092    2.00000
   69     -4.08942    2.00000
   70     -4.05446    2.00000
   71     -4.03717    2.00000
   72     -4.02377    2.00000
   73     -4.00928    2.00000
   74     -3.98796    2.00000
   75     -3.95568    2.00000
   76     -3.91902    2.00000
   77     -3.89393    2.00000
   78     -3.88094    2.00000
   79     -3.82399    2.00000
   80     -3.79576    2.00000
   81     -3.71136    2.00000
   82     -3.66392    2.00000
   83     -3.61738    2.00000
   84     -3.60304    2.00000
   85     -3.55703    2.00000
   86     -3.53883    2.00000
   87     -3.46684    2.00000
   88     -3.44780    2.00000
   89     -3.43107    2.00000
   90     -3.41101    2.00000
   91     -3.37963    2.00000
   92     -3.30381    2.00000
   93     -3.22486    2.00000
   94     -3.20890    2.00000
   95     -3.17549    2.00000
   96     -3.11366    2.00000
   97     -3.10486    2.00000
   98     -3.05406    2.00000
   99     -3.03298    2.00000
  100     -3.00814    2.00000
  101     -2.99108    2.00000
  102     -2.94645    2.00000
  103     -2.92465    2.00000
  104     -2.91467    2.00000
  105     -2.90445    2.00000
  106     -2.88201    2.00000
  107     -2.81963    2.00000
  108     -2.79337    2.00000
  109     -2.76236    2.00000
  110     -2.73098    2.00000
  111     -2.71502    2.00000
  112     -2.68015    2.00000
  113     -2.64563    2.00000
  114     -2.59383    2.00000
  115     -2.56285    2.00000
  116     -2.53407    2.00000
  117     -2.51829    2.00000
  118     -2.46293    2.00000
  119     -2.44965    2.00000
  120     -2.44572    2.00000
  121     -2.41047    2.00000
  122     -2.38659    2.00000
  123     -2.36119    2.00000
  124     -2.32277    2.00000
  125     -2.28639    2.00000
  126     -2.25843    2.00000
  127     -2.23714    2.00000
  128     -2.22743    2.00000
  129     -2.19242    2.00000
  130     -2.18689    2.00000
  131     -2.13972    2.00000
  132     -2.11896    2.00000
  133     -2.09897    2.00000
  134     -2.07286    2.00000
  135     -2.04545    2.00000
  136     -2.00764    2.00000
  137     -1.95480    2.00000
  138     -1.91202    2.00000
  139     -1.90531    2.00000
  140     -1.87863    2.00000
  141     -1.83398    2.00000
  142     -1.81573    2.00000
  143     -1.77678    2.00000
  144      0.80747    1.99901
  145      0.81273    1.99896
  146      0.83125    1.99875
  147      0.87180    1.99812
  148      0.87918    1.99798
  149      0.89515    1.99763
  150      0.94021    1.99628
  151      0.94695    1.99602
  152      0.98659    1.99409
  153      0.99481    1.99359
  154      1.01362    1.99227
  155      1.01729    1.99198
  156      1.02115    1.99167
  157      1.04087    1.98986
  158      1.05901    1.98786
  159      1.07345    1.98598
  160      1.11703    1.97841
  161      1.14255    1.97222
  162      1.14784    1.97073
  163      1.16179    1.96642
  164      1.18853    1.95635
  165      1.19521    1.95341
  166      1.20150    1.95046
  167      1.20643    1.94802
  168      1.22835    1.93569
  169      1.23524    1.93126
  170      1.24235    1.92638
  171      1.24705    1.92298
  172      1.25933    1.91335
  173      1.26474    1.90875
  174      1.28522    1.88916
  175      1.29440    1.87915
  176      1.31336    1.85574
  177      1.35514    1.78882
  178      1.36877    1.76166
  179      1.37539    1.74741
  180      1.39168    1.70921
  181      1.41061    1.65895
  182      1.43033    1.59949
  183      1.44108    1.56396
  184      1.44815    1.53935
  185      1.46706    1.46894
  186      1.48882    1.37987
  187      1.51692    1.25374
  188      1.56629    1.01257
  189      1.58665    0.91098
  190      1.60079    0.84139
  191      1.66033    0.57186
  192      1.67477    0.51473
  193      1.69782    0.43163
  194      1.71012    0.39146
  195      1.72225    0.35468
  196      1.80039    0.17963
  197      1.83412    0.13159
  198      1.86339    0.09987
  199      1.87180    0.09218
  200      1.91315    0.06193
  201      1.92036    0.05774
  202      1.92991    0.05262
  203      2.00133    0.02611
  204      2.09801    0.01001
  205      2.12424    0.00771
  206      2.18806    0.00408
  207      2.20574    0.00342
  208      2.24872    0.00223
  209      2.40840    0.00045
  210      2.42856    0.00037
  211      2.46497    0.00026
  212      2.49140    0.00020
  213      2.51849    0.00015
  214      2.57075    0.00009
  215      2.67599    0.00003
  216      2.70291    0.00002
  217      2.72483    0.00002
  218      2.80450    0.00001
  219      2.82549    0.00001
  220      2.85495    0.00001
  221      2.90498    0.00000
  222      2.97371    0.00000
  223      3.00670    0.00000
  224      4.90382    0.00000
  225      5.73039    0.00000
  226      6.21232    0.00000
  227      6.80036    0.00000
  228      7.38331    0.00000
  229      7.67024    0.00000
  230      7.77093    0.00000
  231      7.98502    0.00000
  232      8.22063    0.00000
  233      8.46639    0.00000
  234      8.59786    0.00000
  235      8.94908    0.00000
  236      9.85677    0.00000
  237     10.04227    0.00000
  238     10.06186    0.00000
  239     10.13475    0.00000
  240     10.41071    0.00000
  241     10.73125    0.00000
  242     10.79761    0.00000
  243     10.87996    0.00000
  244     10.96393    0.00000
  245     10.99034    0.00000
  246     11.04900    0.00000
  247     11.20901    0.00000
  248     11.25567    0.00000
  249     11.38052    0.00000
  250     11.55049    0.00000
  251     11.66819    0.00000
  252     11.73914    0.00000
  253     11.82562    0.00000
  254     11.88716    0.00000
  255     11.91876    0.00000
  256     12.02939    0.00000
  257     12.05111    0.00000
  258     12.23211    0.00000
  259     12.28245    0.00000
  260     12.31001    0.00000
  261     12.34613    0.00000
  262     12.46878    0.00000
  263     12.48665    0.00000
  264     12.52509    0.00000
  265     12.57014    0.00000
  266     12.60173    0.00000
  267     12.65049    0.00000
  268     12.68078    0.00000
  269     12.73238    0.00000
  270     12.82576    0.00000
  271     13.01794    0.00000
  272     13.05687    0.00000
  273     13.20964    0.00000
  274     13.23285    0.00000
  275     13.25074    0.00000
  276     13.33536    0.00000
  277     13.36506    0.00000
  278     13.46466    0.00000
  279     13.50068    0.00000
  280     13.69803    0.00000
  281     14.02140    0.00000
  282     14.03754    0.00000
  283     14.20891    0.00000
  284     14.34590    0.00000
  285     14.40033    0.00000
  286     14.46675    0.00000
  287     14.53270    0.00000

Timing:                              incl.     excl.
-----------------------------------------------------------
Hamiltonian:                         5.096     0.000   0.0% |
 Atomic:                             2.274     0.005   0.0% |
  XC Correction:                     2.269     2.269   0.0% |
 Calculate atomic Hamiltonians:      0.034     0.034   0.0% |
 Communicate:                        0.000     0.000   0.0% |
 Hartree integrate/restrict:         0.016     0.016   0.0% |
 Initialize Hamiltonian:             0.000     0.000   0.0% |
 Poisson:                            2.127     2.127   0.0% |
 XC 3D grid:                         0.638     0.638   0.0% |
 vbar:                               0.007     0.007   0.0% |
LCAO initialization:                23.500     0.228   0.0% |
 LCAO eigensolver:                   2.096     0.000   0.0% |
  Calculate projections:             0.023     0.023   0.0% |
  DenseAtomicCorrection:             0.022     0.022   0.0% |
  Distribute overlap matrix:         0.000     0.000   0.0% |
  Orbital Layouts:                   0.059     0.059   0.0% |
  Potential matrix:                  1.992     1.992   0.0% |
 LCAO to grid:                      20.009    20.009   0.3% |
 Set positions (LCAO WFS):           1.167     0.000   0.0% |
  Basic WFS set positions:           0.001     0.001   0.0% |
  Basis functions set positions:     0.000     0.000   0.0% |
  TCI: Calculate S, T, P:            1.166     1.166   0.0% |
SCF-cycle:                        6442.347     0.135   0.0% |
 Davidson:                        5518.194   909.413  14.1% |-----|
  Apply hamiltonian:               124.203   124.203   1.9% ||
  Subspace diag:                  1590.082     0.037   0.0% |
   calc_h_matrix:                  617.145   491.454   7.6% |--|
    Apply hamiltonian:             125.691   125.691   1.9% ||
   diagonalize:                      4.008     4.008   0.1% |
   rotate_psi:                     968.892   968.892  15.0% |-----|
  calc. matrices:                 1899.415  1774.796  27.4% |----------|
   Apply hamiltonian:              124.619   124.619   1.9% ||
  diagonalize:                      18.451    18.451   0.3% |
  rotate_psi:                      976.631   976.631  15.1% |-----|
 Density:                           21.080     0.005   0.0% |
  Atomic density matrices:           1.104     1.104   0.0% |
  Mix:                              10.844    10.844   0.2% |
  Multipole moments:                 0.224     0.224   0.0% |
  Pseudo density:                    8.903     8.900   0.1% |
   Symmetrize density:               0.003     0.003   0.0% |
 Hamiltonian:                      896.375     0.024   0.0% |
  Atomic:                          427.165     0.889   0.0% |
   XC Correction:                  426.276   426.276   6.6% |--|
  Calculate atomic Hamiltonians:     6.864     6.864   0.1% |
  Communicate:                       0.002     0.002   0.0% |
  Hartree integrate/restrict:        4.163     4.163   0.1% |
  Poisson:                         335.771   335.771   5.2% |-|
  XC 3D grid:                      120.998   120.998   1.9% ||
  vbar:                              1.389     1.389   0.0% |
 Orthonormalize:                     6.562     0.000   0.0% |
  calc_s_matrix:                     1.608     1.608   0.0% |
  inverse-cholesky:                  0.004     0.004   0.0% |
  projections:                       2.321     2.321   0.0% |
  rotate_psi_s:                      2.628     2.628   0.0% |
Set symmetry:                        0.001     0.001   0.0% |
Other:                               1.298     1.298   0.0% |
-----------------------------------------------------------
Total:                                      6472.242 100.0%

Memory usage: 1.07 GiB
Date: Wed Mar 27 08:35:13 2019
