
  ___ ___ ___ _ _ _  
 |   |   |_  | | | | 
 | | | | | . | | | | 
 |__ |  _|___|_____|  1.4.0
 |___|_|             

User:   murakami@tssm1.eng.shizuoka.ac.jp
Date:   Tue Mar 26 18:09:52 2019
Arch:   x86_64
Pid:    31289
Python: 3.6.5
gpaw:   /home/murakami/.local/lib/python3.6/site-packages/gpaw
_gpaw:  /home/murakami/.local/lib/python3.6/site-packages/
        _gpaw.cpython-36m-x86_64-linux-gnu.so
ase:    /home/murakami/.local/lib/python3.6/site-packages/ase (version 3.16.2)
numpy:  /home/murakami/.local/lib/python3.6/site-packages/numpy (version 1.15.2)
scipy:  /home/murakami/.local/lib/python3.6/site-packages/scipy (version 1.1.0)
units:  Angstrom and eV
cores:  1

Input parameters:
  kpts: {size: (1, 1, 1)}
  maxiter: 300
  xc: PBE

System changes: positions, numbers, cell, pbc, initial_charges, initial_magmoms 

Initialize ...

Fe-setup:
  name: Iron
  id: 37abbd8d6c3c35915a9b583b742da910
  Z: 26
  valence: 8
  core: 18
  charge: 0.0
  file: /home/murakami/Public/gpaw-setups-0.9.20000/Fe.PBE.gz
  cutoffs: 1.06(comp), 2.06(filt), 2.67(core), lmax=2
  valence states:
                energy  radius
    4s(2.00)    -5.291   1.164
    4p(0.00)    -1.326   1.058
    3d(6.00)    -7.505   1.058
    *s          21.920   1.164
    *p          25.885   1.058
    *d          19.706   1.058

  Using partial waves for Fe as LCAO basis

O-setup:
  name: Oxygen
  id: 32ecd46bf208036f09c70b0ec9a88b78
  Z: 8
  valence: 6
  core: 2
  charge: 0.0
  file: /home/murakami/Public/gpaw-setups-0.9.20000/O.PBE.gz
  cutoffs: 0.67(comp), 1.17(filt), 0.83(core), lmax=2
  valence states:
                energy  radius
    2s(2.00)   -23.961   0.688
    2p(4.00)    -9.029   0.598
    *s           3.251   0.688
    *p          18.182   0.598
    *d           0.000   0.619

  Using partial waves for O as LCAO basis

F-setup:
  name: Fluorine
  id: 9cd46ba2a61e170ad72278be75b55cc0
  Z: 9
  valence: 7
  core: 2
  charge: 0.0
  file: /home/murakami/Public/gpaw-setups-0.9.20000/F.PBE.gz
  cutoffs: 0.64(comp), 1.14(filt), 0.74(core), lmax=2
  valence states:
                energy  radius
    2s(2.00)   -29.898   0.635
    2p(5.00)   -11.110   0.635
    *s          -2.687   0.635
    *p          16.102   0.635
    *d           0.000   0.635

  Using partial waves for F as LCAO basis

Reference energy: -319034.472395

Spin-paired calculation

Occupation numbers:
  Fermi-Dirac: width=0.1000 eV

Convergence criteria:
  Maximum total energy change: 0.0005 eV / electron
  Maximum integral of absolute density change: 0.0001 electrons
  Maximum integral of absolute eigenstate change: 4e-08 eV^2
  Maximum number of iterations: 300

Symmetries present (total): 1

  ( 1  0  0)
  ( 0  1  0)
  ( 0  0  1)

1 k-point (Gamma)
1 k-point in the irreducible part of the Brillouin zone
       k-points in crystal coordinates                weights
   0:     0.00000000    0.00000000    0.00000000          1/1

Wave functions: Uniform real-space grid
  Kinetic energy operator: 10*3+1=31 point O(h^6) finite-difference Laplacian
  ScaLapack parameters: grid=1x1, blocksize=None 

Eigensolver
   Davidson(niter=1, smin=None, normalize=True) 

Densities:
  Coarse grid: 28*24*52 grid
  Fine grid: 56*48*104 grid
  Total Charge: 0.000000 

Density mixing:
  Method: separate
  Backend: pulay
  Linear mixing parameter: 0.05
  Mixing with 5 old densities
  Damping of long wave oscillations: 50 

Hamiltonian:
  XC and Coulomb potentials evaluated on a 56*48*104 grid
  Using the PBE Exchange-Correlation functional
  Interpolation: tri-quintic (5. degree polynomial)
  Poisson solver: Jacobi solver with 4 multi-grid levels
    Coarsest grid: 7 x 6 x 13 points
    Stencil: 10*3+1=31 point O(h^6) finite-difference Laplacian
    Max iterations: 1000
    Tolerance: 2.000000e-10 

Memory estimate:
  Process memory now: 315.07 MiB
  Calculator: 140.46 MiB
    Density: 46.49 MiB
      Arrays: 6.93 MiB
      Localized functions: 36.90 MiB
      Mixer: 2.67 MiB
    Hamiltonian: 12.49 MiB
      Arrays: 4.53 MiB
      XC: 0.00 MiB
      Poisson: 5.17 MiB
      vbar: 2.79 MiB
    Wavefunctions: 81.47 MiB
      Arrays psit_nG: 36.26 MiB
      Eigensolver: 39.01 MiB
      Projections: 0.37 MiB
      Projectors: 5.84 MiB

Total number of cores used: 1

Number of atoms: 24
Number of atomic orbitals: 136
Number of bands in calculation: 136
Bands to converge: occupied states only
Number of valence electrons: 174

... initialized

Initializing position-dependent things.

Density initialized from atomic densities
Creating initial wave functions:
  136 bands from LCAO basis set

                                 
                                 
                                 
                                 
                Fe               
                     O           
                      Fe         
          FF   F    Fe           
                      F          
           Fe                    
           F  F    F             
              F        Fe        
               Fe                
                                 
             FeF  O   F          
                 FFe             
       F                         
            F     F              
                                 
                                 
                                 
                                 
                                 

Positions:
   0 Fe     1.416738    1.189211    7.916055    ( 0.0000,  0.0000,  0.0000)
   1 Fe     1.416738    3.560010    2.424853    ( 0.0000,  0.0000,  0.0000)
   2 Fe     2.953178    1.172318    5.011385    ( 0.0000,  0.0000,  0.0000)
   3 Fe     2.953178    3.640649   10.431099    ( 0.0000,  0.0000,  0.0000)
   4 Fe     4.323386    1.106753    2.384273    ( 0.0000,  0.0000,  0.0000)
   5 Fe     4.323386    3.678689    7.695890    ( 0.0000,  0.0000,  0.0000)
   6 Fe     5.681193    1.155072   10.053040    ( 0.0000,  0.0000,  0.0000)
   7 Fe     5.693829    3.630370    4.586985    ( 0.0000,  0.0000,  0.0000)
   8 O      4.465826    0.279843    3.983468    ( 0.0000,  0.0000,  0.0000)
   9 O      4.465826    4.505599    9.327412    ( 0.0000,  0.0000,  0.0000)
  10 F      0.078582    0.275431    1.976125    ( 0.0000,  0.0000,  0.0000)
  11 F      0.078582    4.510011    7.379906    ( 0.0000,  0.0000,  0.0000)
  12 F      1.307801    2.150774    6.013026    ( 0.0000,  0.0000,  0.0000)
  13 F      1.274802    2.634668    0.571224    ( 0.0000,  0.0000,  0.0000)
  14 F      1.627969    0.247632    9.808892    ( 0.0000,  0.0000,  0.0000)
  15 F      1.601658    4.537810    4.331830    ( 0.0000,  0.0000,  0.0000)
  16 F      2.763996    2.170342    3.037202    ( 0.0000,  0.0000,  0.0000)
  17 F      2.763996    2.615100    8.475173    ( 0.0000,  0.0000,  0.0000)
  18 F      2.997224    0.170362    6.923120    ( 0.0000,  0.0000,  0.0000)
  19 F      2.997224    4.622077    1.355961    ( 0.0000,  0.0000,  0.0000)
  20 F      4.143358    2.120047    0.401486    ( 0.0000,  0.0000,  0.0000)
  21 F      4.160595    2.665395    5.836175    ( 0.0000,  0.0000,  0.0000)
  22 F      5.583533    2.184578    8.131562    ( 0.0000,  0.0000,  0.0000)
  23 F      5.583533    2.611306    2.685729    ( 0.0000,  0.0000,  0.0000)

Unit cell:
           periodic     x           y           z      points  spacing
  1. axis:    yes    5.735919    0.000000   -0.790267    28     0.2049
  2. axis:    yes    0.000000    4.785442   -0.043172    24     0.1994
  3. axis:    yes    0.000000    0.000000   10.883966    52     0.2073

  Lengths:   5.790103   4.785637  10.883966
  Angles:   90.516881  97.844547  89.929454

Effective grid spacing dv^(1/3) = 0.2045

                     log10-error:    total        iterations:
           time      wfs    density  energy       fermi  poisson
iter:   1  18:10:06  +1.56   +inf  -150.252731    3      17     
iter:   2  18:10:09  +0.21   +inf  -150.903161    3             
iter:   3  18:10:12  -0.39   +inf  -151.090319    2             
iter:   4  18:10:18  -0.63  -1.14  -149.357095    3      8      
iter:   5  18:10:23  -0.41  -1.18  -157.973335    3      13     
iter:   6  18:10:29  -0.32  -1.19  -146.872257    3      13     
iter:   7  18:10:34  -0.70  -1.40  -146.207239    3      12     
iter:   8  18:10:39  -1.48  -1.43  -146.007734    3      11     
iter:   9  18:10:45  -1.52  -1.44  -146.185904    4      11     
iter:  10  18:10:50  -1.53  -1.44  -145.806980    3      10     
iter:  11  18:10:56  -1.54  -1.47  -147.332293    4      13     
iter:  12  18:11:01  -1.32  -1.41  -145.887466    4      13     
iter:  13  18:11:08  -1.68  -1.49  -145.946526    4      11     
iter:  14  18:11:15  -1.53  -1.51  -145.627035    4      11     
iter:  15  18:11:22  -1.41  -1.62  -147.860118    3      13     
iter:  16  18:11:28  -1.18  -1.50  -146.089768    4      14     
iter:  17  18:11:33  -1.21  -1.78  -147.457837    3      13     
iter:  18  18:11:38  -1.41  -1.61  -145.950681    4      13     
iter:  19  18:11:44  -1.50  -1.88  -146.455897    3      12     
iter:  20  18:11:51  -1.70  -1.76  -145.664254    4      12     
iter:  21  18:11:56  -2.40  -1.97  -145.601448    3      9      
iter:  22  18:12:02  -2.91  -2.03  -145.578476    3      5      
iter:  23  18:12:09  -2.83  -2.07  -145.614909    3      7      
iter:  24  18:12:15  -2.59  -2.08  -145.615793    3      10     
iter:  25  18:12:20  -2.36  -2.13  -145.643849    3      10     
iter:  26  18:12:25  -2.55  -2.23  -145.586816    3      10     
iter:  27  18:12:31  -2.75  -2.38  -145.585030    3      9      
iter:  28  18:12:37  -2.82  -2.47  -145.596652    2      6      
iter:  29  18:12:43  -2.82  -2.52  -145.569516    3      7      
iter:  30  18:12:50  -2.97  -2.68  -145.590313    3      7      
iter:  31  18:12:56  -3.00  -2.61  -145.591365    3      9      
iter:  32  18:13:03  -3.11  -2.58  -145.578651    3      9      
iter:  33  18:13:09  -3.43  -2.64  -145.565404    2      8      
iter:  34  18:13:15  -3.77  -2.89  -145.560630    3      4      
iter:  35  18:13:22  -3.99  -2.98  -145.564146    2      4      
iter:  36  18:13:28  -4.23  -3.04  -145.561439    3      4      
iter:  37  18:13:34  -4.21  -3.06  -145.563665    2      6      
iter:  38  18:13:41  -4.05  -2.96  -145.564568    2      6      
iter:  39  18:13:48  -4.07  -2.95  -145.562547    2      6      
iter:  40  18:13:54  -4.19  -3.06  -145.563100    2      4      
iter:  41  18:13:59  -4.35  -3.14  -145.559674    2      4      
iter:  42  18:14:04  -4.52  -3.15  -145.561688    2      4      
iter:  43  18:14:09  -4.87  -3.20  -145.561434    2      4      
iter:  44  18:14:14  -4.86  -3.19  -145.561476    2      4      
iter:  45  18:14:20  -4.72  -3.19  -145.561746    2      4      
iter:  46  18:14:26  -4.61  -3.22  -145.560722    2      4      
iter:  47  18:14:32  -4.52  -3.24  -145.564093    2      4      
iter:  48  18:14:39  -4.41  -3.23  -145.560949    2      4      
iter:  49  18:14:44  -4.72  -3.23  -145.561355    2      5      
iter:  50  18:14:50  -4.85  -3.22  -145.561228    2      4      
iter:  51  18:14:56  -4.98  -3.31  -145.560967    2      4      
iter:  52  18:15:02  -5.02  -3.36  -145.561570    2      3      
iter:  53  18:15:09  -5.21  -3.38  -145.560411    2      4      
iter:  54  18:15:15  -4.82  -3.41  -145.562789    2      3      
iter:  55  18:15:22  -4.74  -3.36  -145.563082    2      5      
iter:  56  18:15:28  -4.71  -3.22  -145.562294    2      5      
iter:  57  18:15:34  -4.82  -3.34  -145.562044    2      4      
iter:  58  18:15:39  -4.88  -3.46  -145.561369    2      3      
iter:  59  18:15:45  -5.31  -3.47  -145.561680    2      3      
iter:  60  18:15:51  -5.42  -3.55  -145.561011    2      3      
iter:  61  18:15:58  -5.46  -3.54  -145.561201    2      3      
iter:  62  18:16:05  -5.39  -3.50  -145.561405    2      4      
iter:  63  18:16:12  -5.23  -3.57  -145.561450    2      3      
iter:  64  18:16:18  -5.01  -3.58  -145.562374    2      4      
iter:  65  18:16:25  -5.09  -3.54  -145.560835    2      3      
iter:  66  18:16:32  -5.35  -3.66  -145.562068    2      3      
iter:  67  18:16:37  -5.67  -3.65  -145.561701    2      3      
iter:  68  18:16:41  -5.96  -3.68  -145.561540    2      3      
iter:  69  18:16:46  -5.83  -3.76  -145.561600    2      3      
iter:  70  18:16:51  -5.55  -3.73  -145.561197    2      4      
iter:  71  18:16:56  -5.40  -3.73  -145.562219    2      3      
iter:  72  18:17:00  -5.43  -3.81  -145.561337    2      3      
iter:  73  18:17:05  -5.45  -3.70  -145.561333    2      4      
iter:  74  18:17:10  -5.41  -3.82  -145.561874    2      4      
iter:  75  18:17:14  -5.69  -3.85  -145.561485    2      3      
iter:  76  18:17:19  -5.84  -3.91  -145.561465    2      3      
iter:  77  18:17:24  -6.01  -4.26  -145.561368    2      3      
iter:  78  18:17:30  -6.03  -4.19  -145.561576    2      3      
iter:  79  18:17:36  -6.43  -4.21  -145.561757    2      2      
iter:  80  18:17:42  -6.90  -4.57  -145.561458    2      2      
iter:  81  18:17:49  -7.20  -4.54  -145.561705    2      1      
iter:  82  18:17:55  -7.66  -4.63  -145.561744    2      2      

Converged after 82 iterations.

Dipole moment: (-1.970531, 2.731127, -1.869644) |e|*Ang

Energy contributions relative to reference atoms: (reference = -319034.472395)

Kinetic:       +120.285067
Potential:     -134.039892
External:        +0.000000
XC:            -138.759966
Entropy (-ST):   -1.209004
Local:           +7.557549
--------------------------
Free energy:   -146.166246
Extrapolated:  -145.561744

Fermi level: 3.68187

 Band  Eigenvalues  Occupancy
    0    -20.67332    2.00000
    1    -20.59313    2.00000
    2    -20.38045    2.00000
    3    -20.34716    2.00000
    4    -20.29374    2.00000
    5    -20.23625    2.00000
    6    -20.17117    2.00000
    7    -20.14143    2.00000
    8    -20.12130    2.00000
    9    -20.05931    2.00000
   10    -20.00495    2.00000
   11    -19.97198    2.00000
   12    -19.85632    2.00000
   13    -19.53669    2.00000
   14    -14.86395    2.00000
   15    -14.61793    2.00000
   16     -4.18103    2.00000
   17     -3.81777    2.00000
   18     -3.43440    2.00000
   19     -3.30311    2.00000
   20     -3.24995    2.00000
   21     -3.12174    2.00000
   22     -3.05965    2.00000
   23     -2.98041    2.00000
   24     -2.87564    2.00000
   25     -2.84326    2.00000
   26     -2.74908    2.00000
   27     -2.62134    2.00000
   28     -2.61982    2.00000
   29     -2.58646    2.00000
   30     -2.48215    2.00000
   31     -2.46987    2.00000
   32     -2.39847    2.00000
   33     -2.36628    2.00000
   34     -2.34368    2.00000
   35     -2.25318    2.00000
   36     -2.24700    2.00000
   37     -2.15749    2.00000
   38     -2.09671    2.00000
   39     -2.06703    2.00000
   40     -1.99475    2.00000
   41     -1.98934    2.00000
   42     -1.97748    2.00000
   43     -1.86779    2.00000
   44     -1.75529    2.00000
   45     -1.63422    2.00000
   46     -1.54609    2.00000
   47     -1.45743    2.00000
   48     -1.42833    2.00000
   49     -1.33156    2.00000
   50     -1.17331    2.00000
   51     -1.09389    2.00000
   52     -1.03531    2.00000
   53     -0.96865    2.00000
   54     -0.84858    2.00000
   55     -0.82499    2.00000
   56     -0.77743    2.00000
   57     -0.69490    2.00000
   58     -0.59103    2.00000
   59     -0.49623    2.00000
   60     -0.46407    2.00000
   61     -0.28369    2.00000
   62      0.17543    2.00000
   63      0.42562    2.00000
   64      2.90732    1.99913
   65      2.91223    1.99909
   66      2.96728    1.99842
   67      2.99499    1.99792
   68      3.00761    1.99764
   69      3.02918    1.99708
   70      3.06062    1.99600
   71      3.10012    1.99407
   72      3.13468    1.99163
   73      3.15072    1.99018
   74      3.20689    1.98284
   75      3.22355    1.97976
   76      3.25508    1.97236
   77      3.28017    1.96462
   78      3.30837    1.95337
   79      3.35163    1.92902
   80      3.38104    1.90589
   81      3.40753    1.87908
   82      3.42758    1.85419
   83      3.46729    1.79055
   84      3.55718    1.55350
   85      3.57817    1.47652
   86      3.60613    1.36158
   87      3.70345    0.89250
   88      3.71861    0.81832
   89      3.84799    0.31920
   90      3.92923    0.15546
   91      3.95884    0.11796
   92      4.02781    0.06098
   93      4.08552    0.03470
   94      4.13451    0.02141
   95      4.18607    0.01284
   96      4.39193    0.00165
   97      4.51028    0.00050
   98      4.83042    0.00002
   99      4.90066    0.00001
  100      4.96257    0.00001
  101      5.02361    0.00000
  102      5.09134    0.00000
  103      5.27624    0.00000
  104      6.21052    0.00000
  105      8.02407    0.00000
  106      8.42545    0.00000
  107     10.93095    0.00000
  108     11.32953    0.00000
  109     11.38377    0.00000
  110     11.57900    0.00000
  111     11.76934    0.00000
  112     11.90997    0.00000
  113     11.98661    0.00000
  114     12.17223    0.00000
  115     12.87942    0.00000
  116     13.12747    0.00000
  117     13.25057    0.00000
  118     13.59388    0.00000
  119     13.80914    0.00000
  120     14.55976    0.00000
  121     14.96529    0.00000
  122     15.05349    0.00000
  123     15.09514    0.00000
  124     15.29050    0.00000
  125     15.75095    0.00000
  126     15.78554    0.00000
  127     15.81438    0.00000
  128     15.89470    0.00000
  129     15.98539    0.00000
  130     16.05227    0.00000
  131     16.14303    0.00000
  132     16.25212    0.00000
  133     16.32048    0.00000
  134     16.36465    0.00000
  135     16.46519    0.00000

Timing:                              incl.     excl.
-----------------------------------------------------------
Hamiltonian:                         2.260     0.000   0.0% |
 Atomic:                             1.142     0.003   0.0% |
  XC Correction:                     1.139     1.139   0.2% |
 Calculate atomic Hamiltonians:      0.012     0.012   0.0% |
 Communicate:                        0.000     0.000   0.0% |
 Hartree integrate/restrict:         0.007     0.007   0.0% |
 Initialize Hamiltonian:             0.000     0.000   0.0% |
 Poisson:                            0.862     0.862   0.2% |
 XC 3D grid:                         0.234     0.234   0.0% |
 vbar:                               0.002     0.002   0.0% |
LCAO initialization:                 5.939     0.254   0.1% |
 LCAO eigensolver:                   0.969     0.000   0.0% |
  Calculate projections:             0.003     0.003   0.0% |
  DenseAtomicCorrection:             0.003     0.003   0.0% |
  Distribute overlap matrix:         0.000     0.000   0.0% |
  Orbital Layouts:                   0.009     0.009   0.0% |
  Potential matrix:                  0.953     0.953   0.2% |
 LCAO to grid:                       3.999     3.999   0.8% |
 Set positions (LCAO WFS):           0.717     0.000   0.0% |
  Basic WFS set positions:           0.001     0.001   0.0% |
  Basis functions set positions:     0.000     0.000   0.0% |
  TCI: Calculate S, T, P:            0.716     0.716   0.1% |
SCF-cycle:                         473.478     0.061   0.0% |
 Davidson:                         317.079    94.239  19.5% |-------|
  Apply hamiltonian:                13.108    13.108   2.7% ||
  Subspace diag:                    77.580     0.014   0.0% |
   calc_h_matrix:                   33.591    20.659   4.3% |-|
    Apply hamiltonian:              12.932    12.932   2.7% ||
   diagonalize:                      0.427     0.427   0.1% |
   rotate_psi:                      43.548    43.548   9.0% |---|
  calc. matrices:                   87.707    74.795  15.5% |-----|
   Apply hamiltonian:               12.912    12.912   2.7% ||
  diagonalize:                       1.641     1.641   0.3% |
  rotate_psi:                       42.805    42.805   8.9% |---|
 Density:                            2.984     0.002   0.0% |
  Atomic density matrices:           0.221     0.221   0.0% |
  Mix:                               1.809     1.809   0.4% |
  Multipole moments:                 0.072     0.072   0.0% |
  Pseudo density:                    0.880     0.878   0.2% |
   Symmetrize density:               0.002     0.002   0.0% |
 Hamiltonian:                      152.528     0.010   0.0% |
  Atomic:                          102.207     0.231   0.0% |
   XC Correction:                  101.976   101.976  21.1% |-------|
  Calculate atomic Hamiltonians:     1.241     1.241   0.3% |
  Communicate:                       0.001     0.001   0.0% |
  Hartree integrate/restrict:        0.752     0.752   0.2% |
  Poisson:                          26.890    26.890   5.6% |-|
  XC 3D grid:                       21.206    21.206   4.4% |-|
  vbar:                              0.221     0.221   0.0% |
 Orthonormalize:                     0.826     0.000   0.0% |
  calc_s_matrix:                     0.149     0.149   0.0% |
  inverse-cholesky:                  0.001     0.001   0.0% |
  projections:                       0.438     0.438   0.1% |
  rotate_psi_s:                      0.237     0.237   0.0% |
Set symmetry:                        0.001     0.001   0.0% |
Other:                               0.989     0.989   0.2% |
-----------------------------------------------------------
Total:                                       482.667 100.0%

Memory usage: 317.30 MiB
Date: Tue Mar 26 18:17:55 2019
