
  ___ ___ ___ _ _ _  
 |   |   |_  | | | | 
 | | | | | . | | | | 
 |__ |  _|___|_____|  1.4.0
 |___|_|             

User:   murakami@tssm1.eng.shizuoka.ac.jp
Date:   Thu Mar 28 21:50:16 2019
Arch:   x86_64
Pid:    31289
Python: 3.6.5
gpaw:   /home/murakami/.local/lib/python3.6/site-packages/gpaw
_gpaw:  /home/murakami/.local/lib/python3.6/site-packages/
        _gpaw.cpython-36m-x86_64-linux-gnu.so
ase:    /home/murakami/.local/lib/python3.6/site-packages/ase (version 3.16.2)
numpy:  /home/murakami/.local/lib/python3.6/site-packages/numpy (version 1.15.2)
scipy:  /home/murakami/.local/lib/python3.6/site-packages/scipy (version 1.1.0)
units:  Angstrom and eV
cores:  1

Input parameters:
  kpts: {size: (1, 1, 1)}
  maxiter: 300
  xc: PBE

System changes: positions, numbers, cell, pbc, initial_charges, initial_magmoms 

Initialize ...

Fe-setup:
  name: Iron
  id: 37abbd8d6c3c35915a9b583b742da910
  Z: 26
  valence: 8
  core: 18
  charge: 0.0
  file: /home/murakami/Public/gpaw-setups-0.9.20000/Fe.PBE.gz
  cutoffs: 1.06(comp), 2.06(filt), 2.67(core), lmax=2
  valence states:
                energy  radius
    4s(2.00)    -5.291   1.164
    4p(0.00)    -1.326   1.058
    3d(6.00)    -7.505   1.058
    *s          21.920   1.164
    *p          25.885   1.058
    *d          19.706   1.058

  Using partial waves for Fe as LCAO basis

O-setup:
  name: Oxygen
  id: 32ecd46bf208036f09c70b0ec9a88b78
  Z: 8
  valence: 6
  core: 2
  charge: 0.0
  file: /home/murakami/Public/gpaw-setups-0.9.20000/O.PBE.gz
  cutoffs: 0.67(comp), 1.17(filt), 0.83(core), lmax=2
  valence states:
                energy  radius
    2s(2.00)   -23.961   0.688
    2p(4.00)    -9.029   0.598
    *s           3.251   0.688
    *p          18.182   0.598
    *d           0.000   0.619

  Using partial waves for O as LCAO basis

F-setup:
  name: Fluorine
  id: 9cd46ba2a61e170ad72278be75b55cc0
  Z: 9
  valence: 7
  core: 2
  charge: 0.0
  file: /home/murakami/Public/gpaw-setups-0.9.20000/F.PBE.gz
  cutoffs: 0.64(comp), 1.14(filt), 0.74(core), lmax=2
  valence states:
                energy  radius
    2s(2.00)   -29.898   0.635
    2p(5.00)   -11.110   0.635
    *s          -2.687   0.635
    *p          16.102   0.635
    *d           0.000   0.635

  Using partial waves for F as LCAO basis

Reference energy: -648925.267931

Spin-paired calculation

Occupation numbers:
  Fermi-Dirac: width=0.1000 eV

Convergence criteria:
  Maximum total energy change: 0.0005 eV / electron
  Maximum integral of absolute density change: 0.0001 electrons
  Maximum integral of absolute eigenstate change: 4e-08 eV^2
  Maximum number of iterations: 300

Symmetries present (total): 1

  ( 1  0  0)
  ( 0  1  0)
  ( 0  0  1)

1 k-point (Gamma)
1 k-point in the irreducible part of the Brillouin zone
       k-points in crystal coordinates                weights
   0:     0.00000000    0.00000000    0.00000000          1/1

Wave functions: Uniform real-space grid
  Kinetic energy operator: 8*3+1=25 point O(h^6) finite-difference Laplacian
  ScaLapack parameters: grid=1x1, blocksize=None 

Eigensolver
   Davidson(niter=1, smin=None, normalize=True) 

Densities:
  Coarse grid: 48*28*76 grid
  Fine grid: 96*56*152 grid
  Total Charge: 0.000000 

Density mixing:
  Method: separate
  Backend: pulay
  Linear mixing parameter: 0.05
  Mixing with 5 old densities
  Damping of long wave oscillations: 50 

Hamiltonian:
  XC and Coulomb potentials evaluated on a 96*56*152 grid
  Using the PBE Exchange-Correlation functional
  Interpolation: tri-quintic (5. degree polynomial)
  Poisson solver: Jacobi solver with 4 multi-grid levels
    Coarsest grid: 12 x 7 x 19 points
    Stencil: 8*3+1=25 point O(h^6) finite-difference Laplacian
    Max iterations: 1000
    Tolerance: 2.000000e-10 

Memory estimate:
  Process memory now: 1099.94 MiB
  Calculator: 625.81 MiB
    Density: 116.13 MiB
      Arrays: 20.26 MiB
      Localized functions: 88.08 MiB
      Mixer: 7.79 MiB
    Hamiltonian: 35.03 MiB
      Arrays: 13.25 MiB
      XC: 0.00 MiB
      Poisson: 15.10 MiB
      vbar: 6.68 MiB
    Wavefunctions: 474.64 MiB
      Arrays psit_nG: 224.44 MiB
      Eigensolver: 234.67 MiB
      Projections: 1.66 MiB
      Projectors: 13.87 MiB

Total number of cores used: 1

Number of atoms: 52
Number of atomic orbitals: 288
Number of bands in calculation: 288
Bands to converge: occupied states only
Number of valence electrons: 376

... initialized

Initializing position-dependent things.

Density initialized from atomic densities
Creating initial wave functions:
  288 bands from LCAO basis set

                                           
                                           
                                           
                                           
                          Fe               
               F      F                    
             Fe              O             
               O        F       F          
                            Fe             
         F       F        F                
               Fe                          
            FFe    F       F               
              F        F     F             
         F     F       Fe                  
                        F   Fe             
             Fe  O        F     F          
               Fe Fe                       
            F      F   Fe  O               
              F       F     Fe             
                          Fe               
         F   FeF        F                  
                         F                 
          F     F Fe                       
            F                              
                    F     F Fe             
                                           
                                           
                                           
                                           
                                           

Positions:
   0 Fe     1.542848    2.593853    2.677597    ( 0.0000,  0.0000,  0.0000)
   1 Fe     1.545443    2.765614   10.155400    ( 0.0000,  0.0000,  0.0000)
   2 Fe     6.243444    5.273587    2.635533    ( 0.0000,  0.0000,  0.0000)
   3 Fe     6.156191    0.085880   10.114139    ( 0.0000,  0.0000,  0.0000)
   4 Fe     1.648330    2.534235   14.537576    ( 0.0000,  0.0000,  0.0000)
   5 Fe     1.648330    2.825232    7.059751    ( 0.0000,  0.0000,  0.0000)
   6 Fe     6.348925    5.213968   14.495512    ( 0.0000,  0.0000,  0.0000)
   7 Fe     6.348925    0.145499    7.016894    ( 0.0000,  0.0000,  0.0000)
   8 Fe     3.117708    0.157643   12.385291    ( 0.0000,  0.0000,  0.0000)
   9 Fe     3.103549    5.201824    4.793944    ( 0.0000,  0.0000,  0.0000)
  10 Fe     7.738177    2.837377   12.230295    ( 0.0000,  0.0000,  0.0000)
  11 Fe     7.818303    2.522090    4.887475    ( 0.0000,  0.0000,  0.0000)
  12 Fe     3.081945    0.023153    7.706212    ( 0.0000,  0.0000,  0.0000)
  13 Fe     3.136416    5.336314    0.227899    ( 0.0000,  0.0000,  0.0000)
  14 Fe     7.837011    2.749433    7.663660    ( 0.0000,  0.0000,  0.0000)
  15 Fe     7.837011    2.656581    0.185834    ( 0.0000,  0.0000,  0.0000)
  16 O      2.907450    1.433164   13.814659    ( 0.0000,  0.0000,  0.0000)
  17 O      2.907450    3.926303    6.336834    ( 0.0000,  0.0000,  0.0000)
  18 O      7.608045    4.112898   13.772595    ( 0.0000,  0.0000,  0.0000)
  19 O      7.608045    1.246569    6.294769    ( 0.0000,  0.0000,  0.0000)
  20 F      0.036298    1.976797    3.648091    ( 0.0000,  0.0000,  0.0000)
  21 F      0.036298    3.382670   11.125917    ( 0.0000,  0.0000,  0.0000)
  22 F      4.736893    4.656530    3.532116    ( 0.0000,  0.0000,  0.0000)
  23 F      4.736893    0.702937   11.083852    ( 0.0000,  0.0000,  0.0000)
  24 F      0.243622    2.119010    8.659520    ( 0.0000,  0.0000,  0.0000)
  25 F      0.243622    3.240457    1.181694    ( 0.0000,  0.0000,  0.0000)
  26 F      4.944218    4.798743    8.617455    ( 0.0000,  0.0000,  0.0000)
  27 F      4.944218    0.560724    1.139630    ( 0.0000,  0.0000,  0.0000)
  28 F      1.655719    1.147837    1.234055    ( 0.0000,  0.0000,  0.0000)
  29 F      1.694884    4.211630    8.662431    ( 0.0000,  0.0000,  0.0000)
  30 F      6.356314    3.827571    1.191991    ( 0.0000,  0.0000,  0.0000)
  31 F      6.356314    1.531896    8.669816    ( 0.0000,  0.0000,  0.0000)
  32 F      1.706072    1.090357   11.043749    ( 0.0000,  0.0000,  0.0000)
  33 F      1.706072    4.269110    3.565923    ( 0.0000,  0.0000,  0.0000)
  34 F      6.406667    3.770090   11.001684    ( 0.0000,  0.0000,  0.0000)
  35 F      6.406667    1.589377    3.523859    ( 0.0000,  0.0000,  0.0000)
  36 F      1.776853    1.081862    6.320255    ( 0.0000,  0.0000,  0.0000)
  37 F      1.847400    4.277605   13.797450    ( 0.0000,  0.0000,  0.0000)
  38 F      6.477449    3.761596    6.278191    ( 0.0000,  0.0000,  0.0000)
  39 F      6.477449    1.597871   13.756016    ( 0.0000,  0.0000,  0.0000)
  40 F      2.759033    1.859028    8.623789    ( 0.0000,  0.0000,  0.0000)
  41 F      2.759033    3.500439    1.145964    ( 0.0000,  0.0000,  0.0000)
  42 F      7.459629    4.538761    8.581725    ( 0.0000,  0.0000,  0.0000)
  43 F      7.459629    0.820706    1.103899    ( 0.0000,  0.0000,  0.0000)
  44 F      2.849557    1.637912    3.683786    ( 0.0000,  0.0000,  0.0000)
  45 F      2.849557    3.721555   11.161611    ( 0.0000,  0.0000,  0.0000)
  46 F      7.550153    4.317646    3.641721    ( 0.0000,  0.0000,  0.0000)
  47 F      7.550153    1.041821   11.119547    ( 0.0000,  0.0000,  0.0000)
  48 F      4.613296    0.730517    6.284284    ( 0.0000,  0.0000,  0.0000)
  49 F      4.613296    4.637825   13.762110    ( 0.0000,  0.0000,  0.0000)
  50 F      9.313892    3.401375    6.242220    ( 0.0000,  0.0000,  0.0000)
  51 F      9.313892    1.958092   13.720045    ( 0.0000,  0.0000,  0.0000)

Unit cell:
           periodic     x           y           z      points  spacing
  1. axis:    yes    9.401191    0.000000   -0.084129    48     0.1959
  2. axis:    yes    0.000000    5.359467    0.000000    28     0.1914
  3. axis:    yes    0.000000    0.000000   14.955651    76     0.1968

  Lengths:   9.401567   5.359467  14.955651
  Angles:   90.000000  90.512712  90.000000

Effective grid spacing dv^(1/3) = 0.1947

                     log10-error:    total        iterations:
           time      wfs    density  energy       fermi  poisson
iter:   1  21:51:32  +1.49   +inf  -311.602063    3      18     
iter:   2  21:52:08  +0.30   +inf  -313.193390    3             
iter:   3  21:52:44  -0.28   +inf  -313.628136    2             
iter:   4  21:53:17  -0.44  -1.13  -311.512676    3      10     
iter:   5  21:53:50  -0.47  -1.15  -320.272446    3      20     
iter:   6  21:54:26  -0.10  -1.13  -310.456077    35     24     
iter:   7  21:55:00  -0.30  -1.30  -306.638580    3      30     
iter:   8  21:55:35  -0.74  -1.34  -314.488283    4      33     
iter:   9  21:56:12  -0.95  -1.27  -302.989017    3      31     
iter:  10  21:56:46  -1.26  -1.40  -301.301787    3      27     
iter:  11  21:57:21  -1.64  -1.42  -301.690525    4      27     
iter:  12  21:57:57  -1.56  -1.43  -301.481699    3      27     
iter:  13  21:58:30  -1.50  -1.44  -305.216366    4      22     
iter:  14  21:59:05  -1.15  -1.40  -324.871351    34     33     
iter:  15  21:59:52  -0.94  -1.23  -303.295946    35     33     
iter:  16  22:00:44  -1.41  -1.42  -302.849597    3      28     
iter:  17  22:01:31  -1.67  -1.45  -300.559994    4      26     
iter:  18  22:02:20  -1.66  -1.53  -301.619147    3      26     
iter:  19  22:03:11  -1.86  -1.49  -300.794154    3      26     
iter:  20  22:03:51  -1.74  -1.51  -302.707608    3      28     
iter:  21  22:04:28  -1.69  -1.48  -300.448624    3      28     
iter:  22  22:05:02  -1.46  -1.56  -303.194546    3      25     
iter:  23  22:05:40  -1.54  -1.51  -301.974306    3      28     
iter:  24  22:06:28  -1.64  -1.56  -301.338477    3      29     
iter:  25  22:07:12  -1.41  -1.57  -302.740360    3      27     
iter:  26  22:07:59  -1.52  -1.53  -303.113967    3      29     
iter:  27  22:08:44  -1.68  -1.53  -301.074792    3      29     
iter:  28  22:09:21  -1.95  -1.59  -299.862700    3      23     
iter:  29  22:09:55  -2.43  -1.66  -299.728374    3      11     
iter:  30  22:10:39  -2.41  -1.69  -299.859264    3      20     
iter:  31  22:11:21  -2.25  -1.68  -300.877198    3      25     
iter:  32  22:12:08  -1.67  -1.63  -304.379376    3      29     
iter:  33  22:12:58  -1.58  -1.52  -300.830661    3      27     
iter:  34  22:13:44  -1.52  -1.67  -302.862022    3      26     
iter:  35  22:14:29  -1.67  -1.59  -300.594790    3      26     
iter:  36  22:15:06  -2.05  -1.68  -299.638914    3      18     
iter:  37  22:15:41  -2.34  -1.76  -300.164636    3      21     
iter:  38  22:16:17  -1.95  -1.72  -302.737459    3      28     
iter:  39  22:16:53  -1.77  -1.58  -300.913083    3      27     
iter:  40  22:17:37  -1.91  -1.70  -300.394219    3      19     
iter:  41  22:18:19  -2.09  -1.73  -300.215406    3      25     
iter:  42  22:19:06  -2.21  -1.76  -299.739807    3      23     
iter:  43  22:19:50  -2.39  -1.79  -300.303511    3      23     
iter:  44  22:20:34  -1.86  -1.75  -303.850953    3      29     
iter:  45  22:21:23  -1.77  -1.56  -299.854911    4      28     
iter:  46  22:22:07  -2.20  -1.81  -300.060935    3      16     
iter:  47  22:22:45  -2.15  -1.80  -300.619460    3      22     
iter:  48  22:23:18  -2.00  -1.79  -299.947155    3      12     
iter:  49  22:23:52  -2.17  -1.81  -300.744430    3      24     
iter:  50  22:24:28  -1.89  -1.76  -302.957034    3      28     
iter:  51  22:25:04  -1.81  -1.62  -299.934178    4      28     
iter:  52  22:25:38  -2.30  -1.84  -299.789765    3      19     
iter:  53  22:26:11  -2.40  -1.88  -300.356975    3      22     
iter:  54  22:26:45  -2.30  -1.82  -299.817992    3      23     
iter:  55  22:27:18  -2.75  -1.89  -299.680768    3      12     
iter:  56  22:27:54  -1.90  -1.92  -304.904873    4      29     
iter:  57  22:28:30  -1.74  -1.57  -299.810672    4      29     
iter:  58  22:29:12  -2.45  -1.92  -299.824989    3      19     
iter:  59  22:29:54  -2.37  -1.92  -300.270521    3      23     
iter:  60  22:30:37  -2.18  -1.89  -299.975167    3      20     
iter:  61  22:31:20  -2.41  -1.92  -299.755664    3      17     
iter:  62  22:31:54  -2.00  -1.96  -303.030858    3      26     
iter:  63  22:32:29  -1.85  -1.65  -299.751638    4      27     
iter:  64  22:33:05  -2.59  -2.00  -299.704911    3      20     
iter:  65  22:33:38  -2.49  -2.00  -300.116815    3      21     
iter:  66  22:34:11  -2.39  -1.91  -299.689062    3      22     
iter:  67  22:34:44  -2.66  -2.04  -299.875729    2      17     
iter:  68  22:35:18  -2.00  -1.99  -302.407540    3      27     
iter:  69  22:35:51  -1.87  -1.69  -299.879256    3      26     
iter:  70  22:36:28  -2.58  -2.01  -299.733448    3      22     
iter:  71  22:37:02  -2.30  -2.05  -300.885119    3      23     
iter:  72  22:37:45  -2.25  -1.84  -299.623857    3      24     
iter:  73  22:38:26  -2.96  -2.12  -299.593665    3      10     
iter:  74  22:39:00  -2.55  -2.14  -300.125048    3      20     
iter:  75  22:39:32  -2.26  -2.00  -299.909207    3      13     
iter:  76  22:40:08  -2.55  -2.03  -299.999550    2      23     
iter:  77  22:40:42  -2.31  -2.01  -301.260573    3      26     
iter:  78  22:41:16  -2.21  -1.80  -299.657169    3      24     
iter:  79  22:41:48  -2.94  -2.17  -299.563103    3      15     
iter:  80  22:42:22  -2.74  -2.22  -299.923217    3      18     
iter:  81  22:42:55  -2.60  -2.06  -299.606880    3      17     
iter:  82  22:43:28  -3.19  -2.20  -299.577965    2      12     
iter:  83  22:44:04  -2.50  -2.24  -300.836330    3      24     
iter:  84  22:44:38  -2.31  -1.88  -299.788220    3      24     
iter:  85  22:45:11  -2.62  -2.16  -299.645402    3      21     
iter:  86  22:45:44  -2.78  -2.20  -299.839797    3      21     
iter:  87  22:46:17  -2.66  -2.11  -299.646635    3      21     
iter:  88  22:46:52  -3.02  -2.27  -299.578743    3      14     
iter:  89  22:47:25  -2.81  -2.29  -299.844987    3      18     
iter:  90  22:48:06  -2.72  -2.16  -299.636827    2      20     
iter:  91  22:48:43  -2.66  -2.31  -300.089975    2      23     
iter:  92  22:49:16  -2.57  -2.07  -299.647605    2      22     
iter:  93  22:49:51  -2.90  -2.31  -299.614405    2      13     
iter:  94  22:50:24  -3.09  -2.35  -299.569837    3      18     
iter:  95  22:50:57  -3.31  -2.40  -299.585079    2      17     
iter:  96  22:51:33  -3.25  -2.39  -299.595416    3      18     
iter:  97  22:52:08  -3.40  -2.39  -299.547848    2      14     
iter:  98  22:52:41  -3.64  -2.50  -299.569878    2      14     
iter:  99  22:53:19  -3.43  -2.44  -299.591051    3      15     
iter: 100  22:53:58  -3.01  -2.46  -299.694266    2      20     
iter: 101  22:54:31  -3.05  -2.28  -299.626636    2      19     
iter: 102  22:55:04  -3.18  -2.40  -299.612267    3      16     
iter: 103  22:55:37  -3.20  -2.48  -299.542916    3      8      
iter: 104  22:56:13  -3.65  -2.56  -299.551286    3      15     
iter: 105  22:56:46  -3.50  -2.56  -299.609039    3      17     
iter: 106  22:57:19  -3.53  -2.49  -299.539701    3      16     
iter: 107  22:57:51  -4.11  -2.64  -299.532099    2      11     
iter: 108  22:58:23  -3.96  -2.67  -299.556823    3      13     
iter: 109  22:58:55  -3.55  -2.61  -299.567382    2      13     
iter: 110  22:59:29  -3.71  -2.59  -299.542169    3      13     
iter: 111  23:00:03  -3.84  -2.65  -299.552729    2      14     
iter: 112  23:00:37  -3.71  -2.61  -299.551595    2      15     
iter: 113  23:01:10  -4.06  -2.63  -299.539740    2      13     
iter: 114  23:01:43  -4.32  -2.74  -299.542593    2      6      
iter: 115  23:02:16  -3.85  -2.74  -299.543979    2      8      
iter: 116  23:02:50  -3.85  -2.68  -299.544915    2      11     
iter: 117  23:03:23  -4.02  -2.73  -299.544892    2      14     
iter: 118  23:03:57  -3.86  -2.71  -299.551182    2      10     
iter: 119  23:04:30  -3.97  -2.76  -299.536824    3      12     
iter: 120  23:05:04  -4.10  -2.78  -299.551494    2      12     
iter: 121  23:05:38  -4.15  -2.70  -299.536251    2      13     
iter: 122  23:06:11  -4.34  -2.82  -299.534909    2      12     
iter: 123  23:06:44  -4.26  -2.83  -299.543970    3      6      
iter: 124  23:07:18  -4.28  -2.81  -299.539056    2      10     
iter: 125  23:07:51  -4.30  -2.85  -299.540804    2      12     
iter: 126  23:08:24  -4.36  -2.82  -299.532624    2      7      
iter: 127  23:08:57  -4.58  -2.90  -299.537070    2      5      
iter: 128  23:09:30  -4.47  -2.91  -299.538731    2      10     
iter: 129  23:10:04  -4.53  -2.88  -299.535240    2      9      
iter: 130  23:10:37  -4.58  -2.91  -299.535500    2      10     
iter: 131  23:11:10  -4.54  -2.92  -299.536546    2      10     
iter: 132  23:11:43  -4.47  -2.91  -299.537253    2      5      
iter: 133  23:12:16  -4.79  -2.96  -299.535427    2      5      
iter: 134  23:12:49  -4.64  -2.98  -299.536058    2      9      
iter: 135  23:13:22  -4.71  -2.95  -299.536435    2      10     
iter: 136  23:13:55  -4.84  -2.95  -299.535469    2      9      
iter: 137  23:14:28  -4.79  -3.02  -299.538062    2      7      
iter: 138  23:15:01  -4.55  -2.99  -299.534137    2      5      
iter: 139  23:15:34  -4.84  -3.00  -299.534353    2      5      
iter: 140  23:16:07  -4.77  -3.04  -299.537111    2      8      
iter: 141  23:16:40  -4.75  -3.00  -299.537703    2      10     
iter: 142  23:17:14  -4.79  -2.99  -299.534219    2      9      
iter: 143  23:17:46  -5.01  -3.07  -299.534159    2      7      
iter: 144  23:18:19  -4.66  -3.07  -299.537363    2      5      
iter: 145  23:18:52  -4.83  -3.04  -299.535508    2      5      
iter: 146  23:19:25  -4.98  -3.10  -299.534819    2      7      
iter: 147  23:19:58  -4.90  -3.08  -299.536053    2      8      
iter: 148  23:20:31  -4.76  -3.06  -299.535485    2      9      
iter: 149  23:21:04  -4.99  -3.11  -299.536402    2      5      
iter: 150  23:21:37  -4.76  -3.12  -299.535590    2      6      
iter: 151  23:22:10  -4.87  -3.11  -299.534285    2      5      
iter: 152  23:22:43  -5.03  -3.16  -299.536564    2      8      
iter: 153  23:23:16  -5.01  -3.13  -299.537661    2      8      
iter: 154  23:23:48  -4.71  -3.15  -299.536285    2      10     
iter: 155  23:24:19  -4.75  -3.08  -299.533906    2      7      
iter: 156  23:24:53  -4.82  -3.15  -299.534377    2      4      
iter: 157  23:25:33  -4.98  -3.22  -299.536082    2      4      
iter: 158  23:26:17  -5.17  -3.23  -299.534790    2      7      
iter: 159  23:26:49  -5.41  -3.24  -299.534418    2      5      
iter: 160  23:27:21  -4.89  -3.28  -299.537856    2      10     
iter: 161  23:27:53  -4.78  -3.09  -299.537629    2      8      
iter: 162  23:28:25  -4.89  -3.25  -299.536049    2      4      
iter: 163  23:28:57  -5.03  -3.29  -299.533994    2      4      
iter: 164  23:29:46  -5.13  -3.32  -299.535439    2      8      
iter: 165  23:30:34  -5.28  -3.23  -299.534385    2      6      
iter: 166  23:31:12  -5.14  -3.40  -299.536650    2      9      
iter: 167  23:31:54  -5.03  -3.17  -299.535180    2      7      
iter: 168  23:32:39  -5.29  -3.37  -299.534245    2      4      
iter: 169  23:33:25  -5.37  -3.41  -299.535127    2      4      
iter: 170  23:34:09  -5.30  -3.42  -299.534178    2      5      
iter: 171  23:34:51  -5.17  -3.36  -299.534724    2      6      
iter: 172  23:35:33  -5.49  -3.47  -299.535670    2      4      
iter: 173  23:36:17  -5.26  -3.45  -299.534853    2      4      
iter: 174  23:36:50  -5.27  -3.45  -299.535612    2      4      
iter: 175  23:37:23  -5.22  -3.46  -299.534533    2      4      
iter: 176  23:38:06  -5.09  -3.43  -299.536058    2      6      
iter: 177  23:38:43  -4.82  -3.50  -299.534805    2      7      
iter: 178  23:39:23  -5.17  -3.37  -299.534928    2      7      
iter: 179  23:40:04  -5.49  -3.52  -299.534445    2      5      
iter: 180  23:40:37  -5.41  -3.59  -299.534389    2      4      
iter: 181  23:41:10  -5.47  -3.70  -299.535255    2      4      
iter: 182  23:41:43  -5.31  -3.60  -299.536026    2      5      
iter: 183  23:42:16  -5.44  -3.58  -299.534815    2      4      
iter: 184  23:42:49  -5.59  -3.83  -299.535096    2      5      
iter: 185  23:43:22  -5.46  -3.57  -299.534772    2      4      
iter: 186  23:44:01  -5.72  -3.79  -299.534465    2      3      
iter: 187  23:44:43  -6.09  -3.93  -299.534329    2      3      
iter: 188  23:45:28  -6.15  -3.86  -299.534790    2      3      
iter: 189  23:46:14  -6.81  -3.98  -299.534604    2      3      
iter: 190  23:47:02  -6.14  -4.05  -299.534816    2      3      
iter: 191  23:47:46  -6.00  -3.86  -299.534728    2      3      
iter: 192  23:48:27  -6.34  -3.98  -299.534523    2      3      
iter: 193  23:49:08  -6.59  -4.12  -299.534841    2      2      
iter: 194  23:49:49  -6.20  -4.09  -299.534363    2      3      
iter: 195  23:50:30  -6.23  -4.02  -299.534724    2      3      
iter: 196  23:51:14  -7.10  -4.21  -299.534595    2      2      
iter: 197  23:51:56  -7.00  -4.20  -299.534484    2      3      
iter: 198  23:52:39  -6.61  -4.22  -299.534778    2      3      
iter: 199  23:53:25  -6.59  -4.23  -299.534609    2      3      
iter: 200  23:54:05  -6.29  -4.20  -299.534331    2      3      
iter: 201  23:54:39  -6.36  -4.14  -299.534761    2      3      
iter: 202  23:55:10  -6.84  -4.40  -299.534784    2      2      
iter: 203  23:55:42  -6.83  -4.30  -299.534620    2      3      
iter: 204  23:56:13  -6.85  -4.34  -299.534704    2      2      
iter: 205  23:56:45  -6.93  -4.38  -299.534801    2      2      
iter: 206  23:57:16  -6.65  -4.41  -299.534403    2      2      
iter: 207  23:57:48  -6.85  -4.30  -299.534678    2      2      
iter: 208  23:58:21  -7.54  -4.49  -299.534581    2      1      

Converged after 208 iterations.

Dipole moment: (-28.564761, -6.661046, 2.601023) |e|*Ang

Energy contributions relative to reference atoms: (reference = -648925.267931)

Kinetic:       +213.334624
Potential:     -245.150097
External:        +0.000000
XC:            -280.205713
Entropy (-ST):   -2.841014
Local:          +13.907112
--------------------------
Free energy:   -300.955088
Extrapolated:  -299.534581

Fermi level: 1.57131

 Band  Eigenvalues  Occupancy
    0    -22.38145    2.00000
    1    -22.34745    2.00000
    2    -22.25071    2.00000
    3    -22.21169    2.00000
    4    -22.20104    2.00000
    5    -22.13243    2.00000
    6    -22.06796    2.00000
    7    -22.03380    2.00000
    8    -22.00794    2.00000
    9    -21.98243    2.00000
   10    -21.88740    2.00000
   11    -21.86803    2.00000
   12    -21.70946    2.00000
   13    -21.64473    2.00000
   14    -21.62829    2.00000
   15    -21.62261    2.00000
   16    -21.56660    2.00000
   17    -21.54976    2.00000
   18    -21.51510    2.00000
   19    -21.49546    2.00000
   20    -21.47532    2.00000
   21    -21.45042    2.00000
   22    -21.43279    2.00000
   23    -21.35976    2.00000
   24    -21.21862    2.00000
   25    -21.15464    2.00000
   26    -21.11923    2.00000
   27    -21.08836    2.00000
   28    -21.05316    2.00000
   29    -20.94242    2.00000
   30    -20.90836    2.00000
   31    -20.86590    2.00000
   32    -17.17391    2.00000
   33    -17.14021    2.00000
   34    -16.97368    2.00000
   35    -16.96538    2.00000
   36     -5.49899    2.00000
   37     -5.46480    2.00000
   38     -5.38763    2.00000
   39     -5.29858    2.00000
   40     -5.25010    2.00000
   41     -5.21029    2.00000
   42     -5.17448    2.00000
   43     -5.16087    2.00000
   44     -4.96298    2.00000
   45     -4.91945    2.00000
   46     -4.77382    2.00000
   47     -4.68240    2.00000
   48     -4.65183    2.00000
   49     -4.62971    2.00000
   50     -4.58998    2.00000
   51     -4.57093    2.00000
   52     -4.56590    2.00000
   53     -4.53551    2.00000
   54     -4.51171    2.00000
   55     -4.47071    2.00000
   56     -4.45615    2.00000
   57     -4.44655    2.00000
   58     -4.38646    2.00000
   59     -4.37750    2.00000
   60     -4.33882    2.00000
   61     -4.30693    2.00000
   62     -4.26605    2.00000
   63     -4.23923    2.00000
   64     -4.21521    2.00000
   65     -4.18614    2.00000
   66     -4.15386    2.00000
   67     -4.14103    2.00000
   68     -4.09039    2.00000
   69     -4.05808    2.00000
   70     -4.04633    2.00000
   71     -4.02189    2.00000
   72     -4.01126    2.00000
   73     -3.99715    2.00000
   74     -3.96753    2.00000
   75     -3.93409    2.00000
   76     -3.92757    2.00000
   77     -3.90941    2.00000
   78     -3.88234    2.00000
   79     -3.83488    2.00000
   80     -3.81848    2.00000
   81     -3.78783    2.00000
   82     -3.71707    2.00000
   83     -3.68299    2.00000
   84     -3.59986    2.00000
   85     -3.58214    2.00000
   86     -3.57527    2.00000
   87     -3.52002    2.00000
   88     -3.46559    2.00000
   89     -3.44410    2.00000
   90     -3.41514    2.00000
   91     -3.39366    2.00000
   92     -3.32236    2.00000
   93     -3.28985    2.00000
   94     -3.24631    2.00000
   95     -3.23163    2.00000
   96     -3.18443    2.00000
   97     -3.12843    2.00000
   98     -3.09972    2.00000
   99     -3.07015    2.00000
  100     -3.02400    2.00000
  101     -3.00912    2.00000
  102     -2.99162    2.00000
  103     -2.93889    2.00000
  104     -2.92093    2.00000
  105     -2.90950    2.00000
  106     -2.87675    2.00000
  107     -2.83435    2.00000
  108     -2.77679    2.00000
  109     -2.75721    2.00000
  110     -2.72874    2.00000
  111     -2.71223    2.00000
  112     -2.66278    2.00000
  113     -2.64463    2.00000
  114     -2.60801    2.00000
  115     -2.58156    2.00000
  116     -2.55872    2.00000
  117     -2.50459    2.00000
  118     -2.49640    2.00000
  119     -2.46447    2.00000
  120     -2.45535    2.00000
  121     -2.41820    2.00000
  122     -2.40192    2.00000
  123     -2.38062    2.00000
  124     -2.32973    2.00000
  125     -2.31952    2.00000
  126     -2.29929    2.00000
  127     -2.28296    2.00000
  128     -2.22887    2.00000
  129     -2.19030    2.00000
  130     -2.16294    2.00000
  131     -2.13793    2.00000
  132     -2.10123    2.00000
  133     -2.07769    2.00000
  134     -2.07487    2.00000
  135     -2.02762    2.00000
  136     -1.95877    2.00000
  137     -1.91460    2.00000
  138     -1.86468    2.00000
  139     -1.83800    2.00000
  140     -1.77738    2.00000
  141     -1.74857    2.00000
  142     -1.70082    2.00000
  143     -1.65560    2.00000
  144      0.75810    1.99941
  145      0.78143    1.99926
  146      0.82383    1.99887
  147      0.86578    1.99828
  148      0.87254    1.99816
  149      0.89224    1.99775
  150      0.94112    1.99634
  151      0.95928    1.99561
  152      0.96861    1.99519
  153      0.98723    1.99420
  154      1.00498    1.99308
  155      1.00935    1.99277
  156      1.03934    1.99026
  157      1.04346    1.98985
  158      1.05979    1.98806
  159      1.08576    1.98455
  160      1.11867    1.97859
  161      1.14081    1.97336
  162      1.16237    1.96706
  163      1.17465    1.96283
  164      1.18111    1.96040
  165      1.19327    1.95539
  166      1.20711    1.94894
  167      1.21292    1.94597
  168      1.23435    1.93349
  169      1.23548    1.93276
  170      1.23829    1.93090
  171      1.24555    1.92589
  172      1.25228    1.92094
  173      1.26733    1.90869
  174      1.27330    1.90334
  175      1.28238    1.89463
  176      1.31742    1.85366
  177      1.35515    1.79350
  178      1.36359    1.77734
  179      1.38447    1.73256
  180      1.39488    1.70752
  181      1.41842    1.64369
  182      1.42856    1.61302
  183      1.43990    1.57640
  184      1.45390    1.52779
  185      1.47457    1.44921
  186      1.50671    1.31224
  187      1.52398    1.23237
  188      1.56280    1.04255
  189      1.58062    0.95351
  190      1.59016    0.90606
  191      1.65254    0.61482
  192      1.68494    0.48602
  193      1.70926    0.40218
  194      1.72210    0.36250
  195      1.73026    0.33892
  196      1.80677    0.17341
  197      1.82080    0.15244
  198      1.86469    0.10102
  199      1.89536    0.07534
  200      1.91429    0.06276
  201      1.92150    0.05852
  202      1.93679    0.05043
  203      2.02799    0.02057
  204      2.09605    0.01047
  205      2.15342    0.00591
  206      2.21971    0.00305
  207      2.24514    0.00237
  208      2.28623    0.00157
  209      2.41533    0.00043
  210      2.43364    0.00036
  211      2.49311    0.00020
  212      2.49853    0.00019
  213      2.53439    0.00013
  214      2.59997    0.00007
  215      2.70678    0.00002
  216      2.73254    0.00002
  217      2.75760    0.00001
  218      2.81849    0.00001
  219      2.83481    0.00001
  220      2.85731    0.00001
  221      2.89746    0.00000
  222      3.00311    0.00000
  223      3.00844    0.00000
  224      4.92118    0.00000
  225      5.74091    0.00000
  226      6.22965    0.00000
  227      6.81888    0.00000
  228      7.40118    0.00000
  229      7.65674    0.00000
  230      7.79097    0.00000
  231      7.98137    0.00000
  232      8.20062    0.00000
  233      8.47762    0.00000
  234      8.60791    0.00000
  235      8.93354    0.00000
  236      9.87716    0.00000
  237     10.04986    0.00000
  238     10.06304    0.00000
  239     10.13780    0.00000
  240     10.43524    0.00000
  241     10.72590    0.00000
  242     10.80716    0.00000
  243     10.89254    0.00000
  244     10.98522    0.00000
  245     11.02710    0.00000
  246     11.03106    0.00000
  247     11.24565    0.00000
  248     11.29856    0.00000
  249     11.35618    0.00000
  250     11.55094    0.00000
  251     11.58413    0.00000
  252     11.74134    0.00000
  253     11.91051    0.00000
  254     11.92307    0.00000
  255     11.92883    0.00000
  256     12.02446    0.00000
  257     12.05360    0.00000
  258     12.24090    0.00000
  259     12.33408    0.00000
  260     12.35193    0.00000
  261     12.39790    0.00000
  262     12.47350    0.00000
  263     12.50111    0.00000
  264     12.52125    0.00000
  265     12.57096    0.00000
  266     12.63243    0.00000
  267     12.67565    0.00000
  268     12.70785    0.00000
  269     12.76091    0.00000
  270     12.84085    0.00000
  271     13.04705    0.00000
  272     13.07737    0.00000
  273     13.19151    0.00000
  274     13.22069    0.00000
  275     13.27073    0.00000
  276     13.33575    0.00000
  277     13.35719    0.00000
  278     13.50531    0.00000
  279     13.52897    0.00000
  280     13.71368    0.00000
  281     13.99814    0.00000
  282     14.10119    0.00000
  283     14.17760    0.00000
  284     14.37459    0.00000
  285     14.40732    0.00000
  286     14.45178    0.00000
  287     14.59000    0.00000

Timing:                              incl.     excl.
-----------------------------------------------------------
Hamiltonian:                         6.129     0.000   0.0% |
 Atomic:                             2.413     0.015   0.0% |
  XC Correction:                     2.398     2.398   0.0% |
 Calculate atomic Hamiltonians:      0.036     0.036   0.0% |
 Communicate:                        0.000     0.000   0.0% |
 Hartree integrate/restrict:         0.022     0.022   0.0% |
 Initialize Hamiltonian:             0.000     0.000   0.0% |
 Poisson:                            2.981     2.981   0.0% |
 XC 3D grid:                         0.670     0.670   0.0% |
 vbar:                               0.007     0.007   0.0% |
LCAO initialization:                27.574     0.241   0.0% |
 LCAO eigensolver:                   2.097     0.000   0.0% |
  Calculate projections:             0.023     0.023   0.0% |
  DenseAtomicCorrection:             0.022     0.022   0.0% |
  Distribute overlap matrix:         0.000     0.000   0.0% |
  Orbital Layouts:                   0.060     0.060   0.0% |
  Potential matrix:                  1.991     1.991   0.0% |
 LCAO to grid:                      23.859    23.859   0.3% |
 Set positions (LCAO WFS):           1.377     0.000   0.0% |
  Basic WFS set positions:           0.001     0.001   0.0% |
  Basis functions set positions:     0.000     0.000   0.0% |
  TCI: Calculate S, T, P:            1.376     1.376   0.0% |
SCF-cycle:                        7649.773     0.176   0.0% |
 Davidson:                        6573.617  1094.195  14.2% |-----|
  Apply hamiltonian:               150.806   150.806   2.0% ||
  Subspace diag:                  1884.913     0.043   0.0% |
   calc_h_matrix:                  730.477   580.682   7.6% |--|
    Apply hamiltonian:             149.795   149.795   1.9% ||
   diagonalize:                      4.701     4.701   0.1% |
   rotate_psi:                    1149.692  1149.692  15.0% |-----|
  calc. matrices:                 2262.604  2113.419  27.5% |----------|
   Apply hamiltonian:              149.186   149.186   1.9% ||
  diagonalize:                      21.254    21.254   0.3% |
  rotate_psi:                     1159.845  1159.845  15.1% |-----|
 Density:                           25.189     0.006   0.0% |
  Atomic density matrices:           1.275     1.275   0.0% |
  Mix:                              12.314    12.314   0.2% |
  Multipole moments:                 0.243     0.243   0.0% |
  Pseudo density:                   11.351    11.347   0.1% |
   Symmetrize density:               0.004     0.004   0.0% |
 Hamiltonian:                     1045.284     0.028   0.0% |
  Atomic:                          507.433     1.068   0.0% |
   XC Correction:                  506.365   506.365   6.6% |--|
  Calculate atomic Hamiltonians:     7.485     7.485   0.1% |
  Communicate:                       0.002     0.002   0.0% |
  Hartree integrate/restrict:        4.439     4.439   0.1% |
  Poisson:                         381.887   381.887   5.0% |-|
  XC 3D grid:                      142.458   142.458   1.9% ||
  vbar:                              1.552     1.552   0.0% |
 Orthonormalize:                     5.508     0.000   0.0% |
  calc_s_matrix:                     1.578     1.578   0.0% |
  inverse-cholesky:                  0.004     0.004   0.0% |
  projections:                       1.304     1.304   0.0% |
  rotate_psi_s:                      2.621     2.621   0.0% |
Set symmetry:                        0.001     0.001   0.0% |
Other:                               1.548     1.548   0.0% |
-----------------------------------------------------------
Total:                                      7685.025 100.0%

Memory usage: 1.07 GiB
Date: Thu Mar 28 23:58:21 2019
