
  ___ ___ ___ _ _ _  
 |   |   |_  | | | | 
 | | | | | . | | | | 
 |__ |  _|___|_____|  1.4.0
 |___|_|             

User:   murakami@tssm1.eng.shizuoka.ac.jp
Date:   Fri Mar 29 08:59:31 2019
Arch:   x86_64
Pid:    31289
Python: 3.6.5
gpaw:   /home/murakami/.local/lib/python3.6/site-packages/gpaw
_gpaw:  /home/murakami/.local/lib/python3.6/site-packages/
        _gpaw.cpython-36m-x86_64-linux-gnu.so
ase:    /home/murakami/.local/lib/python3.6/site-packages/ase (version 3.16.2)
numpy:  /home/murakami/.local/lib/python3.6/site-packages/numpy (version 1.15.2)
scipy:  /home/murakami/.local/lib/python3.6/site-packages/scipy (version 1.1.0)
units:  Angstrom and eV
cores:  1

Input parameters:
  kpts: {size: (1, 1, 1)}
  maxiter: 300
  xc: PBE

System changes: positions, numbers, cell, pbc, initial_charges, initial_magmoms 

Initialize ...

Fe-setup:
  name: Iron
  id: 37abbd8d6c3c35915a9b583b742da910
  Z: 26
  valence: 8
  core: 18
  charge: 0.0
  file: /home/murakami/Public/gpaw-setups-0.9.20000/Fe.PBE.gz
  cutoffs: 1.06(comp), 2.06(filt), 2.67(core), lmax=2
  valence states:
                energy  radius
    4s(2.00)    -5.291   1.164
    4p(0.00)    -1.326   1.058
    3d(6.00)    -7.505   1.058
    *s          21.920   1.164
    *p          25.885   1.058
    *d          19.706   1.058

  Using partial waves for Fe as LCAO basis

O-setup:
  name: Oxygen
  id: 32ecd46bf208036f09c70b0ec9a88b78
  Z: 8
  valence: 6
  core: 2
  charge: 0.0
  file: /home/murakami/Public/gpaw-setups-0.9.20000/O.PBE.gz
  cutoffs: 0.67(comp), 1.17(filt), 0.83(core), lmax=2
  valence states:
                energy  radius
    2s(2.00)   -23.961   0.688
    2p(4.00)    -9.029   0.598
    *s           3.251   0.688
    *p          18.182   0.598
    *d           0.000   0.619

  Using partial waves for O as LCAO basis

F-setup:
  name: Fluorine
  id: 9cd46ba2a61e170ad72278be75b55cc0
  Z: 9
  valence: 7
  core: 2
  charge: 0.0
  file: /home/murakami/Public/gpaw-setups-0.9.20000/F.PBE.gz
  cutoffs: 0.64(comp), 1.14(filt), 0.74(core), lmax=2
  valence states:
                energy  radius
    2s(2.00)   -29.898   0.635
    2p(5.00)   -11.110   0.635
    *s          -2.687   0.635
    *p          16.102   0.635
    *d           0.000   0.635

  Using partial waves for F as LCAO basis

Reference energy: -648925.267931

Spin-paired calculation

Occupation numbers:
  Fermi-Dirac: width=0.1000 eV

Convergence criteria:
  Maximum total energy change: 0.0005 eV / electron
  Maximum integral of absolute density change: 0.0001 electrons
  Maximum integral of absolute eigenstate change: 4e-08 eV^2
  Maximum number of iterations: 300

Symmetries present (total): 1

  ( 1  0  0)
  ( 0  1  0)
  ( 0  0  1)

1 k-point (Gamma)
1 k-point in the irreducible part of the Brillouin zone
       k-points in crystal coordinates                weights
   0:     0.00000000    0.00000000    0.00000000          1/1

Wave functions: Uniform real-space grid
  Kinetic energy operator: 12*3+1=37 point O(h^6) finite-difference Laplacian
  ScaLapack parameters: grid=1x1, blocksize=None 

Eigensolver
   Davidson(niter=1, smin=None, normalize=True) 

Densities:
  Coarse grid: 48*28*76 grid
  Fine grid: 96*56*152 grid
  Total Charge: 0.000000 

Density mixing:
  Method: separate
  Backend: pulay
  Linear mixing parameter: 0.05
  Mixing with 5 old densities
  Damping of long wave oscillations: 50 

Hamiltonian:
  XC and Coulomb potentials evaluated on a 96*56*152 grid
  Using the PBE Exchange-Correlation functional
  Interpolation: tri-quintic (5. degree polynomial)
  Poisson solver: Jacobi solver with 4 multi-grid levels
    Coarsest grid: 12 x 7 x 19 points
    Stencil: 12*3+1=37 point O(h^6) finite-difference Laplacian
    Max iterations: 1000
    Tolerance: 2.000000e-10 

Memory estimate:
  Process memory now: 1099.94 MiB
  Calculator: 625.81 MiB
    Density: 116.13 MiB
      Arrays: 20.26 MiB
      Localized functions: 88.08 MiB
      Mixer: 7.79 MiB
    Hamiltonian: 35.03 MiB
      Arrays: 13.25 MiB
      XC: 0.00 MiB
      Poisson: 15.10 MiB
      vbar: 6.68 MiB
    Wavefunctions: 474.64 MiB
      Arrays psit_nG: 224.44 MiB
      Eigensolver: 234.67 MiB
      Projections: 1.66 MiB
      Projectors: 13.87 MiB

Total number of cores used: 1

Number of atoms: 52
Number of atomic orbitals: 288
Number of bands in calculation: 288
Bands to converge: occupied states only
Number of valence electrons: 376

... initialized

Initializing position-dependent things.

Density initialized from atomic densities
Creating initial wave functions:
  288 bands from LCAO basis set

                                           
                                           
                                           
                                           
                          Fe               
              F       F                    
             Fe              O             
               O        F       F          
                            Fe             
          F      F       F                 
               Fe                          
            FFe    F       F               
              F        F     F             
         F     F       Fe                  
                        F   Fe             
             Fe  O        F     F          
               Fe Fe                       
            F      F   Fe  O               
              F       F     Fe             
                          Fe               
         F   FeF        F                  
                         F                 
          F     F Fe                       
            F                              
                    F     F Fe             
                                           
                                           
                                           
                                           
                                           

Positions:
   0 Fe     1.542848    2.588297    2.680759    ( 0.0000,  0.0000,  0.0000)
   1 Fe     1.542848    2.699212   10.158584    ( 0.0000,  0.0000,  0.0000)
   2 Fe     6.243444    5.268030    2.648326    ( 0.0000,  0.0000,  0.0000)
   3 Fe     6.243444    0.064640   10.244705    ( 0.0000,  0.0000,  0.0000)
   4 Fe     1.648330    2.504189   14.540954    ( 0.0000,  0.0000,  0.0000)
   5 Fe     1.648330    2.822545    7.063129    ( 0.0000,  0.0000,  0.0000)
   6 Fe     6.348925    5.183923   14.508522    ( 0.0000,  0.0000,  0.0000)
   7 Fe     6.348925    0.130893    7.030696    ( 0.0000,  0.0000,  0.0000)
   8 Fe     3.117708    0.132249   12.278031    ( 0.0000,  0.0000,  0.0000)
   9 Fe     3.117708    5.179081    4.800206    ( 0.0000,  0.0000,  0.0000)
  10 Fe     7.818303    2.811983   12.245599    ( 0.0000,  0.0000,  0.0000)
  11 Fe     7.818303    2.559379    4.767773    ( 0.0000,  0.0000,  0.0000)
  12 Fe     3.136416    0.007185    7.712151    ( 0.0000,  0.0000,  0.0000)
  13 Fe     3.136416    5.335786    0.234326    ( 0.0000,  0.0000,  0.0000)
  14 Fe     7.837011    2.686919    7.679719    ( 0.0000,  0.0000,  0.0000)
  15 Fe     7.837011    2.656052    0.201893    ( 0.0000,  0.0000,  0.0000)
  16 O      2.907450    1.407783   13.820617    ( 0.0000,  0.0000,  0.0000)
  17 O      2.837627    3.913166    6.343273    ( 0.0000,  0.0000,  0.0000)
  18 O      7.608045    4.084322   13.788184    ( 0.0000,  0.0000,  0.0000)
  19 O      7.608045    1.233432    6.310359    ( 0.0000,  0.0000,  0.0000)
  20 F      0.036298    1.969264    3.648166    ( 0.0000,  0.0000,  0.0000)
  21 F      0.075238    3.359699   11.125722    ( 0.0000,  0.0000,  0.0000)
  22 F      4.736893    4.648997    3.615733    ( 0.0000,  0.0000,  0.0000)
  23 F      4.736893    0.680173   10.993161    ( 0.0000,  0.0000,  0.0000)
  24 F      0.243622    2.101127    8.660019    ( 0.0000,  0.0000,  0.0000)
  25 F      0.205548    3.238013    1.182456    ( 0.0000,  0.0000,  0.0000)
  26 F      4.944218    4.766792    8.627586    ( 0.0000,  0.0000,  0.0000)
  27 F      4.944218    0.558279    1.149761    ( 0.0000,  0.0000,  0.0000)
  28 F      1.655719    1.119748    1.237448    ( 0.0000,  0.0000,  0.0000)
  29 F      1.655719    4.193542    8.749522    ( 0.0000,  0.0000,  0.0000)
  30 F      6.356314    3.824992    1.205015    ( 0.0000,  0.0000,  0.0000)
  31 F      6.356314    1.513879    8.682841    ( 0.0000,  0.0000,  0.0000)
  32 F      1.690663    1.067524   11.047351    ( 0.0000,  0.0000,  0.0000)
  33 F      1.706072    4.261716    3.569419    ( 0.0000,  0.0000,  0.0000)
  34 F      6.406667    3.747257   11.014812    ( 0.0000,  0.0000,  0.0000)
  35 F      6.406667    1.581983    3.536987    ( 0.0000,  0.0000,  0.0000)
  36 F      1.776853    1.083519    6.323896    ( 0.0000,  0.0000,  0.0000)
  37 F      1.776853    4.249084   13.801722    ( 0.0000,  0.0000,  0.0000)
  38 F      6.477449    3.755379    6.291464    ( 0.0000,  0.0000,  0.0000)
  39 F      6.477449    1.569351   13.769289    ( 0.0000,  0.0000,  0.0000)
  40 F      2.763856    1.841172    8.629409    ( 0.0000,  0.0000,  0.0000)
  41 F      2.759033    3.498022    1.151617    ( 0.0000,  0.0000,  0.0000)
  42 F      7.459629    4.520905    8.597010    ( 0.0000,  0.0000,  0.0000)
  43 F      7.459629    0.818289    1.119185    ( 0.0000,  0.0000,  0.0000)
  44 F      2.849557    1.630254    3.689625    ( 0.0000,  0.0000,  0.0000)
  45 F      2.823892    3.705313   11.159446    ( 0.0000,  0.0000,  0.0000)
  46 F      7.605714    4.309987    3.656809    ( 0.0000,  0.0000,  0.0000)
  47 F      7.550153    1.018724   11.135018    ( 0.0000,  0.0000,  0.0000)
  48 F      4.613296    0.708582    6.293737    ( 0.0000,  0.0000,  0.0000)
  49 F      4.613296    4.609326   13.771563    ( 0.0000,  0.0000,  0.0000)
  50 F      9.277509    3.388030    6.399761    ( 0.0000,  0.0000,  0.0000)
  51 F      9.313892    1.929593   13.739130    ( 0.0000,  0.0000,  0.0000)

Unit cell:
           periodic     x           y           z      points  spacing
  1. axis:    yes    9.401191    0.000000   -0.064865    48     0.1959
  2. axis:    yes    0.000000    5.359467    0.000000    28     0.1914
  3. axis:    yes    0.000000   -0.030878   14.955651    76     0.1968

  Lengths:   9.401415   5.359467  14.955683
  Angles:   90.118295  90.395314  90.000000

Effective grid spacing dv^(1/3) = 0.1947

                     log10-error:    total        iterations:
           time      wfs    density  energy       fermi  poisson
iter:   1  09:00:37  +1.49   +inf  -311.328623    3      18     
iter:   2  09:01:13  +0.30   +inf  -312.922878    3             
iter:   3  09:01:50  -0.28   +inf  -313.359298    2             
iter:   4  09:02:31  -0.44  -1.13  -311.649865    3      21     
iter:   5  09:03:08  -0.49  -1.14  -321.248115    4      29     
iter:   6  09:03:46  -0.13  -1.13  -379.421735    4      37     
iter:   7  09:04:23  -0.26  -1.10  -319.730398    35     36     
iter:   8  09:04:59  -0.37  -1.26  -305.976027    4      29     
iter:   9  09:05:37  -0.64  -1.35  -328.007934    34     34     
iter:  10  09:06:15  -0.79  -1.20  -302.088382    4      32     
iter:  11  09:06:50  -1.37  -1.40  -300.365251    3      19     
iter:  12  09:07:27  -1.70  -1.44  -304.912159    3      28     
iter:  13  09:08:05  -1.38  -1.36  -301.877453    3      30     
iter:  14  09:08:42  -1.55  -1.42  -302.277902    4      26     
iter:  15  09:09:17  -1.40  -1.43  -306.857262    3      24     
iter:  16  09:09:54  -1.35  -1.37  -301.065727    3      29     
iter:  17  09:10:29  -1.52  -1.48  -301.486757    3      24     
iter:  18  09:11:05  -1.46  -1.47  -301.144275    4      27     
iter:  19  09:11:41  -1.51  -1.51  -301.432844    3      24     
iter:  20  09:12:17  -1.71  -1.49  -300.339150    3      26     
iter:  21  09:12:52  -1.85  -1.53  -300.982336    4      25     
iter:  22  09:13:31  -1.69  -1.53  -301.738411    2      28     
iter:  23  09:14:07  -1.75  -1.49  -300.227975    3      27     
iter:  24  09:14:51  -1.87  -1.56  -300.149382    3      20     
iter:  25  09:15:36  -2.01  -1.58  -300.866515    3      23     
iter:  26  09:16:18  -1.68  -1.57  -301.669189    3      29     
iter:  27  09:16:54  -1.79  -1.52  -300.377849    2      27     
iter:  28  09:17:30  -1.90  -1.59  -300.008408    3      23     
iter:  29  09:18:05  -1.94  -1.64  -300.447289    3      22     
iter:  30  09:18:40  -2.02  -1.61  -299.496669    3      20     
iter:  31  09:19:16  -2.13  -1.66  -301.987217    4      27     
iter:  32  09:19:52  -1.79  -1.56  -299.943844    3      27     
iter:  33  09:20:28  -2.12  -1.65  -300.477341    3      25     
iter:  34  09:21:05  -1.95  -1.63  -300.599569    3      25     
iter:  35  09:21:39  -1.80  -1.64  -300.885608    3      17     
iter:  36  09:22:16  -1.73  -1.68  -300.705867    3      22     
iter:  37  09:22:54  -1.92  -1.66  -300.570438    3      25     
iter:  38  09:23:30  -1.80  -1.69  -302.394072    3      28     
iter:  39  09:24:06  -1.81  -1.61  -299.965878    3      26     
iter:  40  09:24:41  -2.16  -1.74  -299.558031    3      21     
iter:  41  09:25:16  -2.59  -1.78  -299.620978    3      22     
iter:  42  09:25:51  -1.98  -1.80  -300.482714    3      24     
iter:  43  09:26:27  -1.95  -1.72  -301.235095    3      23     
iter:  44  09:27:02  -1.88  -1.72  -300.428544    3      26     
iter:  45  09:27:41  -2.13  -1.73  -300.052233    3      25     
iter:  46  09:28:17  -2.18  -1.78  -299.724868    3      25     
iter:  47  09:29:01  -2.32  -1.81  -299.684744    3      24     
iter:  48  09:29:40  -2.35  -1.84  -299.487479    2      21     
iter:  49  09:30:14  -2.92  -1.87  -299.359212    3      17     
iter:  50  09:30:52  -2.80  -1.90  -299.643908    3      21     
iter:  51  09:31:27  -2.60  -1.86  -299.492303    2      23     
iter:  52  09:32:03  -2.59  -1.89  -299.869487    3      22     
iter:  53  09:32:39  -2.07  -1.84  -301.363518    3      27     
iter:  54  09:33:17  -1.90  -1.71  -300.216170    3      25     
iter:  55  09:33:57  -2.00  -1.87  -299.776622    3      22     
iter:  56  09:34:32  -2.21  -1.87  -299.879387    3      17     
iter:  57  09:35:13  -2.35  -1.89  -299.698422    3      23     
iter:  58  09:35:54  -2.70  -1.91  -299.393635    3      21     
iter:  59  09:36:29  -2.27  -1.99  -301.026368    3      26     
iter:  60  09:37:06  -2.12  -1.75  -299.606901    3      26     
iter:  61  09:37:40  -2.59  -1.97  -299.440729    3      15     
iter:  62  09:38:15  -2.64  -2.00  -299.734535    3      19     
iter:  63  09:38:51  -2.48  -1.93  -299.512245    3      21     
iter:  64  09:39:26  -2.94  -2.00  -299.417884    2      20     
iter:  65  09:40:02  -2.34  -2.04  -300.288205    3      24     
iter:  66  09:40:37  -2.19  -1.89  -299.459131    3      24     
iter:  67  09:41:11  -2.58  -2.06  -299.550648    3      14     
iter:  68  09:41:48  -2.42  -2.02  -299.859164    3      21     
iter:  69  09:42:25  -2.39  -1.97  -299.852300    3      24     
iter:  70  09:43:01  -2.58  -1.97  -299.388539    3      22     
iter:  71  09:43:38  -2.45  -2.10  -300.286547    3      23     
iter:  72  09:44:15  -2.39  -1.90  -299.374513    3      23     
iter:  73  09:44:49  -3.15  -2.15  -299.341026    2      9      
iter:  74  09:45:24  -3.26  -2.17  -299.356213    3      7      
iter:  75  09:45:59  -2.90  -2.18  -299.439932    3      12     
iter:  76  09:46:35  -2.51  -2.16  -300.086960    3      20     
iter:  77  09:47:12  -2.24  -2.04  -300.193912    2      24     
iter:  78  09:47:49  -2.26  -2.03  -299.754918    3      24     
iter:  79  09:48:24  -2.41  -2.09  -299.549321    3      13     
iter:  80  09:49:01  -2.57  -2.14  -299.849924    3      24     
iter:  81  09:49:38  -2.60  -2.02  -299.370906    3      23     
iter:  82  09:50:13  -3.35  -2.33  -299.369063    2      12     
iter:  83  09:50:50  -2.82  -2.34  -299.706617    3      21     
iter:  84  09:51:26  -2.74  -2.13  -299.410498    3      21     
iter:  85  09:52:02  -3.14  -2.29  -299.389000    3      18     
iter:  86  09:52:39  -2.82  -2.34  -299.743643    3      21     
iter:  87  09:53:16  -2.73  -2.07  -299.351773    3      22     
iter:  88  09:53:50  -3.52  -2.39  -299.346310    2      8      
iter:  89  09:54:25  -3.70  -2.42  -299.352608    2      9      
iter:  90  09:54:59  -3.44  -2.41  -299.367407    3      8      
iter:  91  09:55:35  -3.26  -2.43  -299.435980    3      17     
iter:  92  09:56:11  -2.95  -2.29  -299.558145    3      19     
iter:  93  09:56:48  -2.62  -2.32  -299.722089    3      22     
iter:  94  09:57:24  -2.69  -2.15  -299.405197    3      21     
iter:  95  09:58:00  -3.05  -2.39  -299.467892    3      15     
iter:  96  09:58:36  -3.17  -2.37  -299.343315    3      17     
iter:  97  09:59:11  -3.90  -2.58  -299.338347    3      10     
iter:  98  09:59:45  -4.29  -2.64  -299.339482    3      6      
iter:  99  10:00:21  -3.43  -2.69  -299.440272    3      18     
iter: 100  10:00:57  -2.93  -2.46  -299.548530    3      20     
iter: 101  10:01:34  -2.98  -2.32  -299.367146    3      19     
iter: 102  10:02:08  -3.32  -2.72  -299.386133    3      11     
iter: 103  10:02:44  -3.40  -2.65  -299.345333    3      15     
iter: 104  10:03:19  -3.85  -2.73  -299.335514    2      12     
iter: 105  10:03:53  -3.95  -2.85  -299.353968    3      13     
iter: 106  10:04:27  -4.02  -2.74  -299.339235    2      14     
iter: 107  10:05:01  -4.02  -2.91  -299.357842    2      13     
iter: 108  10:05:34  -3.75  -2.74  -299.348786    2      11     
iter: 109  10:06:07  -3.79  -2.84  -299.342426    2      10     
iter: 110  10:06:41  -4.09  -2.88  -299.338880    2      11     
iter: 111  10:07:15  -4.17  -2.89  -299.341527    2      11     
iter: 112  10:07:49  -4.11  -2.89  -299.345465    2      13     
iter: 113  10:08:22  -4.07  -2.87  -299.343415    2      10     
iter: 114  10:08:56  -4.19  -2.89  -299.340315    2      9      
iter: 115  10:09:31  -4.24  -2.95  -299.338024    2      8      
iter: 116  10:10:05  -4.24  -2.99  -299.343153    2      11     
iter: 117  10:10:40  -4.11  -2.88  -299.343688    2      12     
iter: 118  10:11:15  -4.23  -2.86  -299.338175    2      13     
iter: 119  10:11:50  -4.35  -3.00  -299.340302    2      8      
iter: 120  10:12:24  -4.44  -2.96  -299.337396    2      8      
iter: 121  10:12:57  -4.43  -3.04  -299.338009    2      8      
iter: 122  10:13:30  -4.36  -3.00  -299.339787    2      9      
iter: 123  10:14:04  -4.41  -2.97  -299.337860    2      10     
iter: 124  10:14:38  -4.49  -2.98  -299.338358    2      11     
iter: 125  10:15:19  -4.49  -3.02  -299.337728    2      6      
iter: 126  10:16:01  -4.56  -3.05  -299.337737    2      7      
iter: 127  10:16:42  -4.56  -3.07  -299.335772    2      5      
iter: 128  10:17:16  -4.56  -3.09  -299.338724    2      8      
iter: 129  10:17:52  -4.54  -3.04  -299.337551    2      10     
iter: 130  10:18:26  -4.66  -3.01  -299.336729    2      11     
iter: 131  10:19:01  -4.70  -3.10  -299.336739    2      5      
iter: 132  10:19:36  -4.74  -3.11  -299.336587    2      6      
iter: 133  10:20:16  -4.76  -3.14  -299.335085    2      4      
iter: 134  10:20:52  -4.77  -3.13  -299.336906    2      6      
iter: 135  10:21:25  -4.85  -3.13  -299.335906    2      8      
iter: 136  10:21:59  -4.93  -3.12  -299.336332    2      9      
iter: 137  10:22:32  -4.92  -3.14  -299.335756    2      5      
iter: 138  10:23:20  -4.97  -3.18  -299.335872    2      5      
iter: 139  10:24:09  -5.03  -3.19  -299.334611    2      4      
iter: 140  10:24:57  -5.11  -3.21  -299.336105    2      5      
iter: 141  10:25:35  -5.23  -3.22  -299.334939    2      5      
iter: 142  10:26:18  -5.34  -3.22  -299.335340    2      6      
iter: 143  10:27:05  -5.43  -3.26  -299.335030    2      5      
iter: 144  10:27:44  -5.46  -3.26  -299.335042    2      4      
iter: 145  10:28:20  -5.54  -3.28  -299.335394    2      4      
iter: 146  10:29:01  -5.44  -3.28  -299.334776    2      4      
iter: 147  10:29:39  -5.37  -3.29  -299.335510    2      4      
iter: 148  10:30:12  -5.39  -3.29  -299.335164    2      6      
iter: 149  10:30:48  -5.45  -3.30  -299.335406    2      5      
iter: 150  10:31:20  -5.43  -3.30  -299.335153    2      4      
iter: 151  10:31:53  -5.63  -3.34  -299.334835    2      4      
iter: 152  10:32:26  -5.67  -3.35  -299.335284    2      3      
iter: 153  10:32:59  -5.67  -3.36  -299.334963    2      4      
iter: 154  10:33:31  -5.58  -3.37  -299.335257    2      5      
iter: 155  10:34:05  -5.46  -3.35  -299.335342    2      4      
iter: 156  10:34:39  -5.33  -3.35  -299.335112    2      4      
iter: 157  10:35:13  -5.51  -3.38  -299.335521    2      5      
iter: 158  10:35:45  -5.55  -3.37  -299.335037    2      3      
iter: 159  10:36:18  -5.71  -3.40  -299.335090    2      4      
iter: 160  10:36:50  -5.79  -3.44  -299.335196    2      4      
iter: 161  10:37:23  -5.73  -3.42  -299.335206    2      4      
iter: 162  10:37:55  -5.42  -3.45  -299.335363    2      4      
iter: 163  10:38:28  -5.07  -3.43  -299.336951    2      8      
iter: 164  10:39:01  -4.84  -3.25  -299.336726    2      5      
iter: 165  10:39:35  -5.04  -3.35  -299.335216    2      7      
iter: 166  10:40:10  -5.26  -3.48  -299.336478    2      6      
iter: 167  10:40:50  -5.18  -3.33  -299.335513    2      5      
iter: 168  10:41:22  -5.27  -3.52  -299.335617    2      4      
iter: 169  10:41:56  -4.84  -3.44  -299.337875    2      10     
iter: 170  10:42:29  -4.90  -3.20  -299.335728    2      6      
iter: 171  10:43:02  -5.27  -3.56  -299.335407    2      7      
iter: 172  10:43:35  -5.17  -3.67  -299.336673    2      7      
iter: 173  10:44:09  -5.17  -3.41  -299.335309    2      5      
iter: 174  10:44:43  -5.71  -3.69  -299.335442    2      3      
iter: 175  10:45:17  -5.89  -3.83  -299.335405    2      3      
iter: 176  10:45:56  -5.10  -3.83  -299.336949    2      9      
iter: 177  10:46:34  -5.10  -3.30  -299.335348    2      7      
iter: 178  10:47:06  -6.15  -3.89  -299.335137    2      3      
iter: 179  10:47:40  -6.15  -4.05  -299.335282    2      3      
iter: 180  10:48:16  -6.08  -4.03  -299.335134    2      3      
iter: 181  10:48:51  -6.20  -3.90  -299.335283    2      3      
iter: 182  10:49:24  -7.03  -4.07  -299.335223    2      2      
iter: 183  10:49:59  -7.04  -4.11  -299.335359    2      2      
iter: 184  10:50:31  -6.25  -4.13  -299.334999    2      3      
iter: 185  10:51:04  -6.19  -3.97  -299.335282    2      3      
iter: 186  10:51:37  -6.74  -4.08  -299.335162    2      2      
iter: 187  10:52:09  -7.16  -4.17  -299.335250    2      2      
iter: 188  10:52:42  -6.98  -4.20  -299.335073    2      2      
iter: 189  10:53:16  -6.81  -4.18  -299.335330    2      2      
iter: 190  10:53:50  -7.03  -4.14  -299.335261    2      2      
iter: 191  10:54:23  -7.81  -4.23  -299.335149    2      1      

Converged after 191 iterations.

Dipole moment: (-28.380017, -6.602935, 2.462717) |e|*Ang

Energy contributions relative to reference atoms: (reference = -648925.267931)

Kinetic:       +216.935231
Potential:     -248.400925
External:        +0.000000
XC:            -280.418239
Entropy (-ST):   -2.798350
Local:          +13.947959
--------------------------
Free energy:   -300.734324
Extrapolated:  -299.335149

Fermi level: 1.60987

 Band  Eigenvalues  Occupancy
    0    -22.34537    2.00000
    1    -22.21309    2.00000
    2    -22.09825    2.00000
    3    -22.08583    2.00000
    4    -22.04748    2.00000
    5    -22.03759    2.00000
    6    -21.97677    2.00000
    7    -21.94742    2.00000
    8    -21.92787    2.00000
    9    -21.90026    2.00000
   10    -21.86529    2.00000
   11    -21.83415    2.00000
   12    -21.75359    2.00000
   13    -21.65505    2.00000
   14    -21.61153    2.00000
   15    -21.60340    2.00000
   16    -21.55597    2.00000
   17    -21.52951    2.00000
   18    -21.50772    2.00000
   19    -21.49466    2.00000
   20    -21.46473    2.00000
   21    -21.46114    2.00000
   22    -21.43324    2.00000
   23    -21.36898    2.00000
   24    -21.34883    2.00000
   25    -21.31590    2.00000
   26    -21.31063    2.00000
   27    -21.23816    2.00000
   28    -21.18334    2.00000
   29    -21.09528    2.00000
   30    -21.06302    2.00000
   31    -21.05686    2.00000
   32    -17.15320    2.00000
   33    -16.94615    2.00000
   34    -16.93868    2.00000
   35    -16.84513    2.00000
   36     -5.38643    2.00000
   37     -5.35639    2.00000
   38     -5.27604    2.00000
   39     -5.19410    2.00000
   40     -5.17815    2.00000
   41     -5.14079    2.00000
   42     -5.10744    2.00000
   43     -5.06334    2.00000
   44     -4.87115    2.00000
   45     -4.83482    2.00000
   46     -4.77144    2.00000
   47     -4.74460    2.00000
   48     -4.60298    2.00000
   49     -4.59998    2.00000
   50     -4.56046    2.00000
   51     -4.52602    2.00000
   52     -4.49864    2.00000
   53     -4.47664    2.00000
   54     -4.44765    2.00000
   55     -4.43397    2.00000
   56     -4.42980    2.00000
   57     -4.40028    2.00000
   58     -4.33256    2.00000
   59     -4.32611    2.00000
   60     -4.30329    2.00000
   61     -4.29373    2.00000
   62     -4.28322    2.00000
   63     -4.25386    2.00000
   64     -4.24319    2.00000
   65     -4.20686    2.00000
   66     -4.18833    2.00000
   67     -4.14019    2.00000
   68     -4.11565    2.00000
   69     -4.09294    2.00000
   70     -4.06211    2.00000
   71     -4.04269    2.00000
   72     -4.01303    2.00000
   73     -3.99965    2.00000
   74     -3.98814    2.00000
   75     -3.93759    2.00000
   76     -3.92631    2.00000
   77     -3.89410    2.00000
   78     -3.85985    2.00000
   79     -3.82911    2.00000
   80     -3.80798    2.00000
   81     -3.76520    2.00000
   82     -3.65377    2.00000
   83     -3.61608    2.00000
   84     -3.59265    2.00000
   85     -3.55377    2.00000
   86     -3.51504    2.00000
   87     -3.48582    2.00000
   88     -3.42822    2.00000
   89     -3.41351    2.00000
   90     -3.38729    2.00000
   91     -3.32482    2.00000
   92     -3.26675    2.00000
   93     -3.25809    2.00000
   94     -3.22251    2.00000
   95     -3.20682    2.00000
   96     -3.17836    2.00000
   97     -3.15544    2.00000
   98     -3.09669    2.00000
   99     -3.05720    2.00000
  100     -3.03935    2.00000
  101     -3.00098    2.00000
  102     -2.96711    2.00000
  103     -2.95816    2.00000
  104     -2.93758    2.00000
  105     -2.93366    2.00000
  106     -2.89491    2.00000
  107     -2.87840    2.00000
  108     -2.82521    2.00000
  109     -2.79575    2.00000
  110     -2.76780    2.00000
  111     -2.75651    2.00000
  112     -2.71207    2.00000
  113     -2.69282    2.00000
  114     -2.63406    2.00000
  115     -2.57903    2.00000
  116     -2.55765    2.00000
  117     -2.51017    2.00000
  118     -2.48610    2.00000
  119     -2.46984    2.00000
  120     -2.43754    2.00000
  121     -2.42222    2.00000
  122     -2.39605    2.00000
  123     -2.37674    2.00000
  124     -2.32884    2.00000
  125     -2.31680    2.00000
  126     -2.28250    2.00000
  127     -2.24408    2.00000
  128     -2.22931    2.00000
  129     -2.22427    2.00000
  130     -2.19285    2.00000
  131     -2.16334    2.00000
  132     -2.12118    2.00000
  133     -2.11495    2.00000
  134     -2.06795    2.00000
  135     -2.03757    2.00000
  136     -2.02089    2.00000
  137     -1.99267    2.00000
  138     -1.93975    2.00000
  139     -1.90689    2.00000
  140     -1.88904    2.00000
  141     -1.82735    2.00000
  142     -1.82260    2.00000
  143     -1.78401    2.00000
  144      0.83539    1.99913
  145      0.85374    1.99896
  146      0.86611    1.99882
  147      0.90756    1.99822
  148      0.91794    1.99802
  149      0.93952    1.99755
  150      0.97510    1.99650
  151      0.98997    1.99595
  152      1.01250    1.99492
  153      1.03244    1.99381
  154      1.05052    1.99258
  155      1.05263    1.99243
  156      1.06628    1.99132
  157      1.08192    1.98986
  158      1.08894    1.98913
  159      1.12016    1.98517
  160      1.15265    1.97954
  161      1.19210    1.96979
  162      1.19532    1.96882
  163      1.20662    1.96516
  164      1.22032    1.96014
  165      1.22623    1.95777
  166      1.23365    1.95459
  167      1.25263    1.94535
  168      1.26123    1.94059
  169      1.27053    1.93499
  170      1.27517    1.93201
  171      1.28583    1.92465
  172      1.29508    1.91764
  173      1.29802    1.91530
  174      1.31134    1.90381
  175      1.32638    1.88906
  176      1.34386    1.86925
  177      1.39101    1.79843
  178      1.40304    1.77556
  179      1.41435    1.75202
  180      1.43066    1.71435
  181      1.44516    1.67697
  182      1.46650    1.61495
  183      1.47506    1.58763
  184      1.48844    1.54210
  185      1.50324    1.48778
  186      1.53436    1.36057
  187      1.55226    1.28029
  188      1.61041    0.99728
  189      1.63264    0.88662
  190      1.64988    0.80256
  191      1.69152    0.61297
  192      1.72857    0.46759
  193      1.74218    0.42060
  194      1.76284    0.35607
  195      1.77686    0.31686
  196      1.84957    0.16680
  197      1.87544    0.13127
  198      1.90444    0.09987
  199      1.92015    0.08598
  200      1.95115    0.06380
  201      1.97087    0.05267
  202      1.97428    0.05095
  203      2.03398    0.02837
  204      2.11993    0.01211
  205      2.18971    0.00605
  206      2.23981    0.00367
  207      2.26649    0.00281
  208      2.30321    0.00195
  209      2.45289    0.00044
  210      2.45504    0.00043
  211      2.51503    0.00023
  212      2.51913    0.00022
  213      2.55989    0.00015
  214      2.62211    0.00008
  215      2.71962    0.00003
  216      2.76111    0.00002
  217      2.76928    0.00002
  218      2.83089    0.00001
  219      2.86838    0.00001
  220      2.90559    0.00000
  221      2.91096    0.00000
  222      2.99206    0.00000
  223      3.03131    0.00000
  224      4.91371    0.00000
  225      5.76928    0.00000
  226      6.18406    0.00000
  227      6.79775    0.00000
  228      7.39225    0.00000
  229      7.67605    0.00000
  230      7.75611    0.00000
  231      7.96366    0.00000
  232      8.25746    0.00000
  233      8.47924    0.00000
  234      8.59565    0.00000
  235      8.91688    0.00000
  236      9.88219    0.00000
  237     10.03571    0.00000
  238     10.08618    0.00000
  239     10.14781    0.00000
  240     10.45710    0.00000
  241     10.73504    0.00000
  242     10.84271    0.00000
  243     10.89875    0.00000
  244     10.93864    0.00000
  245     10.96188    0.00000
  246     11.02141    0.00000
  247     11.25798    0.00000
  248     11.27199    0.00000
  249     11.37428    0.00000
  250     11.53852    0.00000
  251     11.58117    0.00000
  252     11.74852    0.00000
  253     11.86475    0.00000
  254     11.93418    0.00000
  255     11.95906    0.00000
  256     12.05811    0.00000
  257     12.09604    0.00000
  258     12.24286    0.00000
  259     12.27942    0.00000
  260     12.34506    0.00000
  261     12.36399    0.00000
  262     12.48798    0.00000
  263     12.52080    0.00000
  264     12.56048    0.00000
  265     12.57158    0.00000
  266     12.64393    0.00000
  267     12.65602    0.00000
  268     12.66979    0.00000
  269     12.75846    0.00000
  270     12.85334    0.00000
  271     13.03241    0.00000
  272     13.05923    0.00000
  273     13.14296    0.00000
  274     13.27681    0.00000
  275     13.30724    0.00000
  276     13.36899    0.00000
  277     13.37564    0.00000
  278     13.44640    0.00000
  279     13.51656    0.00000
  280     13.68335    0.00000
  281     14.06503    0.00000
  282     14.09874    0.00000
  283     14.23963    0.00000
  284     14.38634    0.00000
  285     14.45316    0.00000
  286     14.48061    0.00000
  287     14.52381    0.00000

Timing:                              incl.     excl.
-----------------------------------------------------------
Hamiltonian:                         5.821     0.000   0.0% |
 Atomic:                             2.306     0.005   0.0% |
  XC Correction:                     2.301     2.301   0.0% |
 Calculate atomic Hamiltonians:      0.034     0.034   0.0% |
 Communicate:                        0.000     0.000   0.0% |
 Hartree integrate/restrict:         0.019     0.019   0.0% |
 Initialize Hamiltonian:             0.000     0.000   0.0% |
 Poisson:                            2.814     2.814   0.0% |
 XC 3D grid:                         0.640     0.640   0.0% |
 vbar:                               0.007     0.007   0.0% |
LCAO initialization:                23.963     0.233   0.0% |
 LCAO eigensolver:                   2.099     0.000   0.0% |
  Calculate projections:             0.024     0.024   0.0% |
  DenseAtomicCorrection:             0.022     0.022   0.0% |
  Distribute overlap matrix:         0.000     0.000   0.0% |
  Orbital Layouts:                   0.061     0.061   0.0% |
  Potential matrix:                  1.992     1.992   0.0% |
 LCAO to grid:                      20.425    20.425   0.3% |
 Set positions (LCAO WFS):           1.206     0.000   0.0% |
  Basic WFS set positions:           0.001     0.001   0.0% |
  Basis functions set positions:     0.000     0.000   0.0% |
  TCI: Calculate S, T, P:            1.204     1.204   0.0% |
SCF-cycle:                        6860.954     0.141   0.0% |
 Davidson:                        5822.536   947.162  13.7% |----|
  Apply hamiltonian:               178.197   178.197   2.6% ||
  Subspace diag:                  1675.064     0.039   0.0% |
   calc_h_matrix:                  682.391   503.557   7.3% |--|
    Apply hamiltonian:             178.835   178.835   2.6% ||
   diagonalize:                      4.091     4.091   0.1% |
   rotate_psi:                     988.543   988.543  14.3% |-----|
  calc. matrices:                 2002.890  1824.573  26.5% |----------|
   Apply hamiltonian:              178.317   178.317   2.6% ||
  diagonalize:                      18.458    18.458   0.3% |
  rotate_psi:                     1000.766  1000.766  14.5% |-----|
 Density:                           21.276     0.005   0.0% |
  Atomic density matrices:           1.139     1.139   0.0% |
  Mix:                              10.831    10.831   0.2% |
  Multipole moments:                 0.220     0.220   0.0% |
  Pseudo density:                    9.082     9.078   0.1% |
   Symmetrize density:               0.004     0.004   0.0% |
 Hamiltonian:                     1011.596     0.024   0.0% |
  Atomic:                          438.648     0.951   0.0% |
   XC Correction:                  437.697   437.697   6.4% |--|
  Calculate atomic Hamiltonians:     6.848     6.848   0.1% |
  Communicate:                       0.002     0.002   0.0% |
  Hartree integrate/restrict:        3.822     3.822   0.1% |
  Poisson:                         436.295   436.295   6.3% |--|
  XC 3D grid:                      124.633   124.633   1.8% ||
  vbar:                              1.325     1.325   0.0% |
 Orthonormalize:                     5.405     0.000   0.0% |
  calc_s_matrix:                     1.574     1.574   0.0% |
  inverse-cholesky:                  0.004     0.004   0.0% |
  projections:                       1.215     1.215   0.0% |
  rotate_psi_s:                      2.611     2.611   0.0% |
Set symmetry:                        0.001     0.001   0.0% |
Other:                               1.302     1.302   0.0% |
-----------------------------------------------------------
Total:                                      6892.041 100.0%

Memory usage: 1.08 GiB
Date: Fri Mar 29 10:54:23 2019
