
  ___ ___ ___ _ _ _  
 |   |   |_  | | | | 
 | | | | | . | | | | 
 |__ |  _|___|_____|  1.4.0
 |___|_|             

User:   murakami@tssm1.eng.shizuoka.ac.jp
Date:   Tue Mar 26 18:52:38 2019
Arch:   x86_64
Pid:    31289
Python: 3.6.5
gpaw:   /home/murakami/.local/lib/python3.6/site-packages/gpaw
_gpaw:  /home/murakami/.local/lib/python3.6/site-packages/
        _gpaw.cpython-36m-x86_64-linux-gnu.so
ase:    /home/murakami/.local/lib/python3.6/site-packages/ase (version 3.16.2)
numpy:  /home/murakami/.local/lib/python3.6/site-packages/numpy (version 1.15.2)
scipy:  /home/murakami/.local/lib/python3.6/site-packages/scipy (version 1.1.0)
units:  Angstrom and eV
cores:  1

Input parameters:
  kpts: {size: (1, 1, 1)}
  maxiter: 300
  xc: PBE

System changes: positions, numbers, cell, pbc, initial_charges, initial_magmoms 

Initialize ...

Fe-setup:
  name: Iron
  id: 37abbd8d6c3c35915a9b583b742da910
  Z: 26
  valence: 8
  core: 18
  charge: 0.0
  file: /home/murakami/Public/gpaw-setups-0.9.20000/Fe.PBE.gz
  cutoffs: 1.06(comp), 2.06(filt), 2.67(core), lmax=2
  valence states:
                energy  radius
    4s(2.00)    -5.291   1.164
    4p(0.00)    -1.326   1.058
    3d(6.00)    -7.505   1.058
    *s          21.920   1.164
    *p          25.885   1.058
    *d          19.706   1.058

  Using partial waves for Fe as LCAO basis

O-setup:
  name: Oxygen
  id: 32ecd46bf208036f09c70b0ec9a88b78
  Z: 8
  valence: 6
  core: 2
  charge: 0.0
  file: /home/murakami/Public/gpaw-setups-0.9.20000/O.PBE.gz
  cutoffs: 0.67(comp), 1.17(filt), 0.83(core), lmax=2
  valence states:
                energy  radius
    2s(2.00)   -23.961   0.688
    2p(4.00)    -9.029   0.598
    *s           3.251   0.688
    *p          18.182   0.598
    *d           0.000   0.619

  Using partial waves for O as LCAO basis

F-setup:
  name: Fluorine
  id: 9cd46ba2a61e170ad72278be75b55cc0
  Z: 9
  valence: 7
  core: 2
  charge: 0.0
  file: /home/murakami/Public/gpaw-setups-0.9.20000/F.PBE.gz
  cutoffs: 0.64(comp), 1.14(filt), 0.74(core), lmax=2
  valence states:
                energy  radius
    2s(2.00)   -29.898   0.635
    2p(5.00)   -11.110   0.635
    *s          -2.687   0.635
    *p          16.102   0.635
    *d           0.000   0.635

  Using partial waves for F as LCAO basis

Reference energy: -319034.472395

Spin-paired calculation

Occupation numbers:
  Fermi-Dirac: width=0.1000 eV

Convergence criteria:
  Maximum total energy change: 0.0005 eV / electron
  Maximum integral of absolute density change: 0.0001 electrons
  Maximum integral of absolute eigenstate change: 4e-08 eV^2
  Maximum number of iterations: 300

Symmetries present (total): 1

  ( 1  0  0)
  ( 0  1  0)
  ( 0  0  1)

1 k-point (Gamma)
1 k-point in the irreducible part of the Brillouin zone
       k-points in crystal coordinates                weights
   0:     0.00000000    0.00000000    0.00000000          1/1

Wave functions: Uniform real-space grid
  Kinetic energy operator: 8*3+1=25 point O(h^6) finite-difference Laplacian
  ScaLapack parameters: grid=1x1, blocksize=None 

Eigensolver
   Davidson(niter=1, smin=None, normalize=True) 

Densities:
  Coarse grid: 28*24*52 grid
  Fine grid: 56*48*104 grid
  Total Charge: 0.000000 

Density mixing:
  Method: separate
  Backend: pulay
  Linear mixing parameter: 0.05
  Mixing with 5 old densities
  Damping of long wave oscillations: 50 

Hamiltonian:
  XC and Coulomb potentials evaluated on a 56*48*104 grid
  Using the PBE Exchange-Correlation functional
  Interpolation: tri-quintic (5. degree polynomial)
  Poisson solver: Jacobi solver with 4 multi-grid levels
    Coarsest grid: 7 x 6 x 13 points
    Stencil: 8*3+1=25 point O(h^6) finite-difference Laplacian
    Max iterations: 1000
    Tolerance: 2.000000e-10 

Memory estimate:
  Process memory now: 337.94 MiB
  Calculator: 140.46 MiB
    Density: 46.49 MiB
      Arrays: 6.93 MiB
      Localized functions: 36.90 MiB
      Mixer: 2.67 MiB
    Hamiltonian: 12.49 MiB
      Arrays: 4.53 MiB
      XC: 0.00 MiB
      Poisson: 5.17 MiB
      vbar: 2.79 MiB
    Wavefunctions: 81.47 MiB
      Arrays psit_nG: 36.26 MiB
      Eigensolver: 39.01 MiB
      Projections: 0.37 MiB
      Projectors: 5.84 MiB

Total number of cores used: 1

Number of atoms: 24
Number of atomic orbitals: 136
Number of bands in calculation: 136
Bands to converge: occupied states only
Number of valence electrons: 174

... initialized

Initializing position-dependent things.

Density initialized from atomic densities
Creating initial wave functions:
  136 bands from LCAO basis set

                                 
                                 
                                 
                                 
                Fe               
                     O           
                      Fe         
          FF   F    Fe           
                      F          
           Fe                    
           F       F             
              F        Fe        
               Fe                
                                 
             FeF FO   F          
                                 
       F          Fe             
            F     F              
                                 
                                 
                                 
                                 
                                 

Positions:
   0 Fe     1.416738    1.189211    7.926783    ( 0.0000,  0.0000,  0.0000)
   1 Fe     1.416738    3.596231    2.484800    ( 0.0000,  0.0000,  0.0000)
   2 Fe     2.953178    1.172318    5.021961    ( 0.0000,  0.0000,  0.0000)
   3 Fe     2.982523    3.639152   10.459901    ( 0.0000,  0.0000,  0.0000)
   4 Fe     4.323386    1.106753    2.287094    ( 0.0000,  0.0000,  0.0000)
   5 Fe     4.323386    3.678689    7.729077    ( 0.0000,  0.0000,  0.0000)
   6 Fe     5.681193    1.155072   10.063461    ( 0.0000,  0.0000,  0.0000)
   7 Fe     5.681193    3.630370    4.621478    ( 0.0000,  0.0000,  0.0000)
   8 O      4.465826    0.321687    3.957749    ( 0.0000,  0.0000,  0.0000)
   9 O      4.465826    4.508035    9.368060    ( 0.0000,  0.0000,  0.0000)
  10 F      0.078582    0.275431    1.978610    ( 0.0000,  0.0000,  0.0000)
  11 F      0.078582    4.510011    7.420593    ( 0.0000,  0.0000,  0.0000)
  12 F      1.274802    2.150774    6.036975    ( 0.0000,  0.0000,  0.0000)
  13 F      1.274802    2.634668    0.594992    ( 0.0000,  0.0000,  0.0000)
  14 F      1.601658    0.247632    9.814751    ( 0.0000,  0.0000,  0.0000)
  15 F      1.601658    4.537810    4.372768    ( 0.0000,  0.0000,  0.0000)
  16 F      2.763996    2.170342    3.056782    ( 0.0000,  0.0000,  0.0000)
  17 F      2.763996    2.615100    8.498765    ( 0.0000,  0.0000,  0.0000)
  18 F      2.997224    0.170362    6.924657    ( 0.0000,  0.0000,  0.0000)
  19 F      2.997224    4.615080    1.482674    ( 0.0000,  0.0000,  0.0000)
  20 F      4.098045    2.120047    0.426855    ( 0.0000,  0.0000,  0.0000)
  21 F      4.143358    2.665395    5.862595    ( 0.0000,  0.0000,  0.0000)
  22 F      5.637783    2.184578    8.143796    ( 0.0000,  0.0000,  0.0000)
  23 F      5.583533    2.600864    2.709287    ( 0.0000,  0.0000,  0.0000)

Unit cell:
           periodic     x           y           z      points  spacing
  1. axis:    yes    5.735919    0.000000   -0.790267    28     0.2049
  2. axis:    yes    0.000000    4.785442    0.000000    24     0.1994
  3. axis:    yes    0.000000    0.000000   10.883966    52     0.2073

  Lengths:   5.790103   4.785442  10.883966
  Angles:   90.000000  97.844547  90.000000

Effective grid spacing dv^(1/3) = 0.2045

                     log10-error:    total        iterations:
           time      wfs    density  energy       fermi  poisson
iter:   1  18:52:52  +1.56   +inf  -150.147663    3      17     
iter:   2  18:52:55  +0.21   +inf  -150.789221    3             
iter:   3  18:52:59  -0.39   +inf  -150.973548    2             
iter:   4  18:53:04  -0.64  -1.14  -149.242902    3      8      
iter:   5  18:53:09  -0.39  -1.18  -156.991932    3      10     
iter:   6  18:53:13  -0.32  -1.18  -146.300453    3      11     
iter:   7  18:53:18  -0.73  -1.42  -145.996860    4      10     
iter:   8  18:53:22  -1.45  -1.43  -146.300221    4      12     
iter:   9  18:53:27  -1.24  -1.42  -147.566595    4      13     
iter:  10  18:53:33  -1.10  -1.39  -145.717971    4      12     
iter:  11  18:53:38  -1.54  -1.47  -145.966927    4      12     
iter:  12  18:53:44  -1.59  -1.49  -145.766299    3      13     
iter:  13  18:53:49  -1.53  -1.52  -146.169424    4      12     
iter:  14  18:53:54  -1.28  -1.55  -145.686682    4      11     
iter:  15  18:54:00  -1.37  -1.69  -147.094969    4      13     
iter:  16  18:54:05  -1.32  -1.62  -146.057102    3      13     
iter:  17  18:54:11  -1.21  -1.83  -146.244148    4      12     
iter:  18  18:54:16  -1.58  -1.74  -146.046828    3      13     
iter:  19  18:54:22  -1.84  -1.80  -145.629100    3      12     
iter:  20  18:54:27  -2.16  -1.98  -145.542014    3      8      
iter:  21  18:54:33  -2.67  -2.00  -145.627635    2      10     
iter:  22  18:54:38  -2.42  -1.96  -145.601190    3      11     
iter:  23  18:54:43  -2.29  -1.99  -145.682477    3      10     
iter:  24  18:54:49  -1.95  -1.98  -145.971325    4      12     
iter:  25  18:54:53  -2.00  -1.93  -145.535984    3      12     
iter:  26  18:54:58  -2.42  -2.35  -145.564173    3      6      
iter:  27  18:55:02  -2.39  -2.33  -145.525469    3      8      
iter:  28  18:55:07  -2.73  -2.59  -145.533387    3      8      
iter:  29  18:55:11  -2.76  -2.47  -145.507416    3      8      
iter:  30  18:55:16  -3.03  -2.74  -145.514063    2      8      
iter:  31  18:55:20  -3.25  -2.60  -145.500185    3      8      
iter:  32  18:55:25  -3.72  -2.81  -145.499458    2      6      
iter:  33  18:55:29  -3.89  -2.85  -145.495968    3      5      
iter:  34  18:55:33  -4.03  -2.89  -145.497553    3      5      
iter:  35  18:55:38  -4.01  -2.92  -145.494951    2      4      
iter:  36  18:55:42  -4.02  -2.91  -145.498747    3      5      
iter:  37  18:55:46  -3.98  -2.94  -145.497395    3      6      
iter:  38  18:55:51  -3.78  -2.90  -145.495922    3      7      
iter:  39  18:55:56  -3.87  -2.88  -145.499423    3      6      
iter:  40  18:56:01  -4.04  -2.94  -145.494963    2      6      
iter:  41  18:56:05  -4.20  -3.02  -145.497235    2      4      
iter:  42  18:56:10  -4.38  -3.04  -145.493571    2      4      
iter:  43  18:56:15  -4.71  -3.10  -145.494827    2      4      
iter:  44  18:56:19  -4.51  -3.11  -145.497059    2      5      
iter:  45  18:56:24  -4.46  -3.06  -145.494584    2      5      
iter:  46  18:56:28  -4.43  -3.10  -145.495866    2      5      
iter:  47  18:56:32  -4.34  -3.10  -145.493749    2      4      
iter:  48  18:56:37  -4.35  -3.13  -145.497310    2      4      
iter:  49  18:56:43  -4.67  -3.14  -145.495245    2      4      
iter:  50  18:56:47  -4.86  -3.20  -145.494449    2      4      
iter:  51  18:56:51  -4.92  -3.21  -145.495397    2      4      
iter:  52  18:56:56  -4.96  -3.24  -145.494959    2      4      
iter:  53  18:57:00  -4.86  -3.24  -145.496126    2      4      
iter:  54  18:57:04  -4.57  -3.27  -145.493556    2      4      
iter:  55  18:57:09  -4.55  -3.20  -145.495237    2      5      
iter:  56  18:57:13  -4.72  -3.24  -145.496218    2      5      
iter:  57  18:57:17  -4.72  -3.27  -145.494579    2      4      
iter:  58  18:57:22  -5.01  -3.31  -145.494890    2      4      
iter:  59  18:57:26  -5.23  -3.36  -145.493884    2      3      
iter:  60  18:57:30  -5.14  -3.41  -145.495856    2      4      
iter:  61  18:57:35  -4.87  -3.36  -145.494726    2      4      
iter:  62  18:57:39  -5.06  -3.36  -145.493980    2      4      
iter:  63  18:57:44  -4.85  -3.45  -145.495888    2      4      
iter:  64  18:57:49  -4.82  -3.33  -145.494566    2      4      
iter:  65  18:57:54  -4.92  -3.45  -145.495430    2      3      
iter:  66  18:57:58  -5.30  -3.53  -145.494093    2      3      
iter:  67  18:58:02  -5.16  -3.57  -145.495268    2      4      
iter:  68  18:58:06  -5.47  -3.50  -145.494786    2      3      
iter:  69  18:58:11  -5.42  -3.64  -145.494617    2      3      
iter:  70  18:58:15  -5.31  -3.54  -145.494886    2      4      
iter:  71  18:58:19  -5.24  -3.68  -145.494350    2      3      
iter:  72  18:58:24  -5.52  -3.69  -145.494881    2      3      
iter:  73  18:58:28  -5.29  -3.75  -145.494587    2      4      
iter:  74  18:58:32  -5.16  -3.61  -145.494699    2      4      
iter:  75  18:58:36  -5.67  -3.82  -145.494833    2      3      
iter:  76  18:58:41  -5.71  -3.76  -145.494447    2      3      
iter:  77  18:58:45  -5.77  -3.99  -145.495016    2      3      
iter:  78  18:58:49  -5.77  -3.94  -145.494390    2      3      
iter:  79  18:58:54  -5.97  -4.07  -145.494548    2      4      
iter:  80  18:58:59  -6.56  -4.50  -145.494797    2      3      
iter:  81  18:59:03  -6.90  -4.52  -145.494598    2      3      
iter:  82  18:59:07  -7.29  -4.66  -145.494899    2      1      
iter:  83  18:59:12  -7.58  -4.78  -145.494710    1      1      

Converged after 83 iterations.

Dipole moment: (-4.161580, 3.630968, -1.640417) |e|*Ang

Energy contributions relative to reference atoms: (reference = -319034.472395)

Kinetic:       +118.078110
Potential:     -132.088745
External:        +0.000000
XC:            -138.470295
Entropy (-ST):   -1.203999
Local:           +7.588219
--------------------------
Free energy:   -146.096709
Extrapolated:  -145.494710

Fermi level: 3.67944

 Band  Eigenvalues  Occupancy
    0    -20.67875    2.00000
    1    -20.60040    2.00000
    2    -20.36871    2.00000
    3    -20.32510    2.00000
    4    -20.29531    2.00000
    5    -20.27451    2.00000
    6    -20.19513    2.00000
    7    -20.15856    2.00000
    8    -20.14879    2.00000
    9    -20.11849    2.00000
   10    -19.96510    2.00000
   11    -19.90146    2.00000
   12    -19.85162    2.00000
   13    -19.81468    2.00000
   14    -14.67370    2.00000
   15    -14.56913    2.00000
   16     -4.19097    2.00000
   17     -3.84361    2.00000
   18     -3.42417    2.00000
   19     -3.28127    2.00000
   20     -3.25130    2.00000
   21     -3.07804    2.00000
   22     -3.04573    2.00000
   23     -2.98608    2.00000
   24     -2.94503    2.00000
   25     -2.88015    2.00000
   26     -2.77201    2.00000
   27     -2.63159    2.00000
   28     -2.62462    2.00000
   29     -2.61551    2.00000
   30     -2.46434    2.00000
   31     -2.43519    2.00000
   32     -2.40739    2.00000
   33     -2.35048    2.00000
   34     -2.32771    2.00000
   35     -2.30557    2.00000
   36     -2.27243    2.00000
   37     -2.24011    2.00000
   38     -2.09348    2.00000
   39     -2.06895    2.00000
   40     -2.04342    2.00000
   41     -1.98905    2.00000
   42     -1.95348    2.00000
   43     -1.93647    2.00000
   44     -1.76005    2.00000
   45     -1.70292    2.00000
   46     -1.49076    2.00000
   47     -1.43161    2.00000
   48     -1.38513    2.00000
   49     -1.29042    2.00000
   50     -1.12713    2.00000
   51     -1.09634    2.00000
   52     -1.04439    2.00000
   53     -1.02000    2.00000
   54     -0.86594    2.00000
   55     -0.81879    2.00000
   56     -0.76050    2.00000
   57     -0.72888    2.00000
   58     -0.55659    2.00000
   59     -0.49976    2.00000
   60     -0.43307    2.00000
   61     -0.35594    2.00000
   62      0.35787    2.00000
   63      0.45084    2.00000
   64      2.91330    1.99906
   65      2.91584    1.99903
   66      2.98286    1.99811
   67      3.00189    1.99772
   68      3.02239    1.99720
   69      3.03632    1.99678
   70      3.06180    1.99585
   71      3.09872    1.99401
   72      3.13414    1.99147
   73      3.15295    1.98971
   74      3.20585    1.98260
   75      3.21496    1.98096
   76      3.25740    1.97104
   77      3.27769    1.96464
   78      3.30039    1.95583
   79      3.35518    1.92482
   80      3.36993    1.91339
   81      3.37775    1.90667
   82      3.42524    1.85407
   83      3.46926    1.78216
   84      3.55658    1.54714
   85      3.58127    1.45488
   86      3.59994    1.37780
   87      3.70052    0.89502
   88      3.71778    0.81062
   89      3.84791    0.31294
   90      3.93270    0.14720
   91      3.95150    0.12353
   92      4.02622    0.06048
   93      4.07236    0.03856
   94      4.14925    0.01806
   95      4.15760    0.01663
   96      4.41145    0.00132
   97      4.48436    0.00064
   98      4.83836    0.00002
   99      4.95888    0.00001
  100      4.99818    0.00000
  101      5.00257    0.00000
  102      5.10396    0.00000
  103      5.27540    0.00000
  104      6.21121    0.00000
  105      7.99072    0.00000
  106      8.47054    0.00000
  107     10.93345    0.00000
  108     11.30792    0.00000
  109     11.34011    0.00000
  110     11.55188    0.00000
  111     11.72927    0.00000
  112     11.94012    0.00000
  113     12.03335    0.00000
  114     12.18354    0.00000
  115     12.87305    0.00000
  116     13.20517    0.00000
  117     13.23395    0.00000
  118     13.59907    0.00000
  119     13.88079    0.00000
  120     14.57401    0.00000
  121     15.01091    0.00000
  122     15.03390    0.00000
  123     15.13862    0.00000
  124     15.28840    0.00000
  125     15.76674    0.00000
  126     15.79946    0.00000
  127     15.85695    0.00000
  128     15.88272    0.00000
  129     15.93658    0.00000
  130     16.11044    0.00000
  131     16.16980    0.00000
  132     16.23891    0.00000
  133     16.28142    0.00000
  134     16.38893    0.00000
  135     16.46085    0.00000

Timing:                              incl.     excl.
-----------------------------------------------------------
Hamiltonian:                         2.090     0.000   0.0% |
 Atomic:                             1.099     0.003   0.0% |
  XC Correction:                     1.096     1.096   0.3% |
 Calculate atomic Hamiltonians:      0.015     0.015   0.0% |
 Communicate:                        0.000     0.000   0.0% |
 Hartree integrate/restrict:         0.008     0.008   0.0% |
 Initialize Hamiltonian:             0.000     0.000   0.0% |
 Poisson:                            0.736     0.736   0.2% |
 XC 3D grid:                         0.228     0.228   0.1% |
 vbar:                               0.003     0.003   0.0% |
LCAO initialization:                 6.670     0.242   0.1% |
 LCAO eigensolver:                   0.973     0.000   0.0% |
  Calculate projections:             0.003     0.003   0.0% |
  DenseAtomicCorrection:             0.003     0.003   0.0% |
  Distribute overlap matrix:         0.000     0.000   0.0% |
  Orbital Layouts:                   0.009     0.009   0.0% |
  Potential matrix:                  0.957     0.957   0.2% |
 LCAO to grid:                       4.793     4.793   1.2% |
 Set positions (LCAO WFS):           0.662     0.000   0.0% |
  Basic WFS set positions:           0.001     0.001   0.0% |
  Basis functions set positions:     0.000     0.000   0.0% |
  TCI: Calculate S, T, P:            0.661     0.661   0.2% |
SCF-cycle:                         384.128     0.058   0.0% |
 Davidson:                         253.916    73.440  18.6% |------|
  Apply hamiltonian:                 9.004     9.004   2.3% ||
  Subspace diag:                    61.945     0.013   0.0% |
   calc_h_matrix:                   26.446    17.272   4.4% |-|
    Apply hamiltonian:               9.174     9.174   2.3% ||
   diagonalize:                      0.343     0.343   0.1% |
   rotate_psi:                      35.143    35.143   8.9% |---|
  calc. matrices:                   72.702    63.694  16.2% |-----|
   Apply hamiltonian:                9.008     9.008   2.3% ||
  diagonalize:                       1.424     1.424   0.4% |
  rotate_psi:                       35.402    35.402   9.0% |---|
 Density:                            2.594     0.002   0.0% |
  Atomic density matrices:           0.197     0.197   0.0% |
  Mix:                               1.694     1.694   0.4% |
  Multipole moments:                 0.048     0.048   0.0% |
  Pseudo density:                    0.653     0.652   0.2% |
   Symmetrize density:               0.001     0.001   0.0% |
 Hamiltonian:                      126.675     0.009   0.0% |
  Atomic:                           86.740     0.203   0.1% |
   XC Correction:                   86.537    86.537  22.0% |--------|
  Calculate atomic Hamiltonians:     1.058     1.058   0.3% |
  Communicate:                       0.001     0.001   0.0% |
  Hartree integrate/restrict:        0.495     0.495   0.1% |
  Poisson:                          20.310    20.310   5.2% |-|
  XC 3D grid:                       17.875    17.875   4.5% |-|
  vbar:                              0.188     0.188   0.0% |
 Orthonormalize:                     0.886     0.000   0.0% |
  calc_s_matrix:                     0.151     0.151   0.0% |
  inverse-cholesky:                  0.001     0.001   0.0% |
  projections:                       0.497     0.497   0.1% |
  rotate_psi_s:                      0.237     0.237   0.1% |
Set symmetry:                        0.001     0.001   0.0% |
Other:                               0.920     0.920   0.2% |
-----------------------------------------------------------
Total:                                       393.809 100.0%

Memory usage: 337.94 MiB
Date: Tue Mar 26 18:59:12 2019
