
  ___ ___ ___ _ _ _  
 |   |   |_  | | | | 
 | | | | | . | | | | 
 |__ |  _|___|_____|  1.4.0
 |___|_|             

User:   murakami@tssm1.eng.shizuoka.ac.jp
Date:   Fri Mar 29 03:38:40 2019
Arch:   x86_64
Pid:    31289
Python: 3.6.5
gpaw:   /home/murakami/.local/lib/python3.6/site-packages/gpaw
_gpaw:  /home/murakami/.local/lib/python3.6/site-packages/
        _gpaw.cpython-36m-x86_64-linux-gnu.so
ase:    /home/murakami/.local/lib/python3.6/site-packages/ase (version 3.16.2)
numpy:  /home/murakami/.local/lib/python3.6/site-packages/numpy (version 1.15.2)
scipy:  /home/murakami/.local/lib/python3.6/site-packages/scipy (version 1.1.0)
units:  Angstrom and eV
cores:  1

Input parameters:
  kpts: {size: (1, 1, 1)}
  maxiter: 300
  xc: PBE

System changes: positions, numbers, cell, pbc, initial_charges, initial_magmoms 

Initialize ...

Fe-setup:
  name: Iron
  id: 37abbd8d6c3c35915a9b583b742da910
  Z: 26
  valence: 8
  core: 18
  charge: 0.0
  file: /home/murakami/Public/gpaw-setups-0.9.20000/Fe.PBE.gz
  cutoffs: 1.06(comp), 2.06(filt), 2.67(core), lmax=2
  valence states:
                energy  radius
    4s(2.00)    -5.291   1.164
    4p(0.00)    -1.326   1.058
    3d(6.00)    -7.505   1.058
    *s          21.920   1.164
    *p          25.885   1.058
    *d          19.706   1.058

  Using partial waves for Fe as LCAO basis

O-setup:
  name: Oxygen
  id: 32ecd46bf208036f09c70b0ec9a88b78
  Z: 8
  valence: 6
  core: 2
  charge: 0.0
  file: /home/murakami/Public/gpaw-setups-0.9.20000/O.PBE.gz
  cutoffs: 0.67(comp), 1.17(filt), 0.83(core), lmax=2
  valence states:
                energy  radius
    2s(2.00)   -23.961   0.688
    2p(4.00)    -9.029   0.598
    *s           3.251   0.688
    *p          18.182   0.598
    *d           0.000   0.619

  Using partial waves for O as LCAO basis

F-setup:
  name: Fluorine
  id: 9cd46ba2a61e170ad72278be75b55cc0
  Z: 9
  valence: 7
  core: 2
  charge: 0.0
  file: /home/murakami/Public/gpaw-setups-0.9.20000/F.PBE.gz
  cutoffs: 0.64(comp), 1.14(filt), 0.74(core), lmax=2
  valence states:
                energy  radius
    2s(2.00)   -29.898   0.635
    2p(5.00)   -11.110   0.635
    *s          -2.687   0.635
    *p          16.102   0.635
    *d           0.000   0.635

  Using partial waves for F as LCAO basis

Reference energy: -648925.267931

Spin-paired calculation

Occupation numbers:
  Fermi-Dirac: width=0.1000 eV

Convergence criteria:
  Maximum total energy change: 0.0005 eV / electron
  Maximum integral of absolute density change: 0.0001 electrons
  Maximum integral of absolute eigenstate change: 4e-08 eV^2
  Maximum number of iterations: 300

Symmetries present (total): 1

  ( 1  0  0)
  ( 0  1  0)
  ( 0  0  1)

1 k-point (Gamma)
1 k-point in the irreducible part of the Brillouin zone
       k-points in crystal coordinates                weights
   0:     0.00000000    0.00000000    0.00000000          1/1

Wave functions: Uniform real-space grid
  Kinetic energy operator: 8*3+1=25 point O(h^6) finite-difference Laplacian
  ScaLapack parameters: grid=1x1, blocksize=None 

Eigensolver
   Davidson(niter=1, smin=None, normalize=True) 

Densities:
  Coarse grid: 48*28*76 grid
  Fine grid: 96*56*152 grid
  Total Charge: 0.000000 

Density mixing:
  Method: separate
  Backend: pulay
  Linear mixing parameter: 0.05
  Mixing with 5 old densities
  Damping of long wave oscillations: 50 

Hamiltonian:
  XC and Coulomb potentials evaluated on a 96*56*152 grid
  Using the PBE Exchange-Correlation functional
  Interpolation: tri-quintic (5. degree polynomial)
  Poisson solver: Jacobi solver with 4 multi-grid levels
    Coarsest grid: 12 x 7 x 19 points
    Stencil: 8*3+1=25 point O(h^6) finite-difference Laplacian
    Max iterations: 1000
    Tolerance: 2.000000e-10 

Memory estimate:
  Process memory now: 1099.94 MiB
  Calculator: 625.81 MiB
    Density: 116.13 MiB
      Arrays: 20.26 MiB
      Localized functions: 88.08 MiB
      Mixer: 7.79 MiB
    Hamiltonian: 35.03 MiB
      Arrays: 13.25 MiB
      XC: 0.00 MiB
      Poisson: 15.10 MiB
      vbar: 6.68 MiB
    Wavefunctions: 474.64 MiB
      Arrays psit_nG: 224.44 MiB
      Eigensolver: 234.67 MiB
      Projections: 1.66 MiB
      Projectors: 13.87 MiB

Total number of cores used: 1

Number of atoms: 52
Number of atomic orbitals: 288
Number of bands in calculation: 288
Bands to converge: occupied states only
Number of valence electrons: 376

... initialized

Initializing position-dependent things.

Density initialized from atomic densities
Creating initial wave functions:
  288 bands from LCAO basis set

                                           
                                           
                                           
                                           
                          Fe               
              F       F                    
             Fe              O             
               O        F       F          
                            Fe             
         F       F        F                
               Fe                          
            FFe    F       F               
              F        F     F             
         F             Fe                  
               F        F   Fe             
             Fe  O        F     F          
               Fe Fe                       
            F      F   Fe  O               
              F       F     Fe             
                          Fe               
         F   FeF        F                  
                         F                 
          F     F Fe                       
            F               Fe             
                    F     F                
                                           
                                           
                                           
                                           
                                           

Positions:
   0 Fe     1.542848    2.593853    2.682133    ( 0.0000,  0.0000,  0.0000)
   1 Fe     1.542848    2.765614   10.159959    ( 0.0000,  0.0000,  0.0000)
   2 Fe     6.250335    5.273587    2.653846    ( 0.0000,  0.0000,  0.0000)
   3 Fe     6.297604    0.050390   10.131388    ( 0.0000,  0.0000,  0.0000)
   4 Fe     1.648330    2.534235   14.542422    ( 0.0000,  0.0000,  0.0000)
   5 Fe     1.599631    2.825232    7.064889    ( 0.0000,  0.0000,  0.0000)
   6 Fe     6.348925    5.213968   14.471075    ( 0.0000,  0.0000,  0.0000)
   7 Fe     6.348925    0.173834    7.036351    ( 0.0000,  0.0000,  0.0000)
   8 Fe     3.134968    0.157643   12.280705    ( 0.0000,  0.0000,  0.0000)
   9 Fe     3.117708    5.201824    4.802983    ( 0.0000,  0.0000,  0.0000)
  10 Fe     7.818303    2.837377   12.252563    ( 0.0000,  0.0000,  0.0000)
  11 Fe     7.818303    2.522090    4.813772    ( 0.0000,  0.0000,  0.0000)
  12 Fe     3.136416    0.023153    7.714945    ( 0.0000,  0.0000,  0.0000)
  13 Fe     3.136416    5.336314    0.237119    ( 0.0000,  0.0000,  0.0000)
  14 Fe     7.886283    2.702886    7.686403    ( 0.0000,  0.0000,  0.0000)
  15 Fe     7.837011    2.679160    0.208874    ( 0.0000,  0.0000,  0.0000)
  16 O      2.907450    1.443492   13.823207    ( 0.0000,  0.0000,  0.0000)
  17 O      2.907450    3.970888    6.345381    ( 0.0000,  0.0000,  0.0000)
  18 O      7.608045    4.112898   13.794961    ( 0.0000,  0.0000,  0.0000)
  19 O      7.608045    1.246569    6.317136    ( 0.0000,  0.0000,  0.0000)
  20 F      0.036298    1.976797    3.648198    ( 0.0000,  0.0000,  0.0000)
  21 F      0.036298    3.393781   11.159434    ( 0.0000,  0.0000,  0.0000)
  22 F      4.736893    4.656530    3.686879    ( 0.0000,  0.0000,  0.0000)
  23 F      4.736893    0.702937   11.097778    ( 0.0000,  0.0000,  0.0000)
  24 F      0.243622    2.119010    8.660236    ( 0.0000,  0.0000,  0.0000)
  25 F      0.243622    3.240457    1.182410    ( 0.0000,  0.0000,  0.0000)
  26 F      4.944218    4.798743    8.631990    ( 0.0000,  0.0000,  0.0000)
  27 F      4.944218    0.560724    1.154165    ( 0.0000,  0.0000,  0.0000)
  28 F      1.655719    1.147837    1.238923    ( 0.0000,  0.0000,  0.0000)
  29 F      1.655719    4.211630    8.716748    ( 0.0000,  0.0000,  0.0000)
  30 F      6.356314    3.827571    1.210677    ( 0.0000,  0.0000,  0.0000)
  31 F      6.356314    1.531896    8.688503    ( 0.0000,  0.0000,  0.0000)
  32 F      1.706072    1.090357   11.048764    ( 0.0000,  0.0000,  0.0000)
  33 F      1.706072    4.269110    3.570939    ( 0.0000,  0.0000,  0.0000)
  34 F      6.406667    3.770090   11.020519    ( 0.0000,  0.0000,  0.0000)
  35 F      6.419782    1.589377    3.542615    ( 0.0000,  0.0000,  0.0000)
  36 F      1.776853    1.081862    6.445034    ( 0.0000,  0.0000,  0.0000)
  37 F      1.776853    4.277605   13.803305    ( 0.0000,  0.0000,  0.0000)
  38 F      6.477449    3.761596    6.297234    ( 0.0000,  0.0000,  0.0000)
  39 F      6.477449    1.603118   13.775059    ( 0.0000,  0.0000,  0.0000)
  40 F      2.759033    1.859028    8.529768    ( 0.0000,  0.0000,  0.0000)
  41 F      2.759033    3.500439    1.154075    ( 0.0000,  0.0000,  0.0000)
  42 F      7.459629    4.538761    8.603655    ( 0.0000,  0.0000,  0.0000)
  43 F      7.459629    0.820706    1.125829    ( 0.0000,  0.0000,  0.0000)
  44 F      2.849557    1.637912    3.692163    ( 0.0000,  0.0000,  0.0000)
  45 F      2.849557    3.721555   11.169988    ( 0.0000,  0.0000,  0.0000)
  46 F      7.550153    4.317646    3.663917    ( 0.0000,  0.0000,  0.0000)
  47 F      7.550153    1.041821   11.141743    ( 0.0000,  0.0000,  0.0000)
  48 F      4.613296    0.721642    6.297846    ( 0.0000,  0.0000,  0.0000)
  49 F      4.613296    4.637825   13.775672    ( 0.0000,  0.0000,  0.0000)
  50 F      9.313892    3.401375    6.269601    ( 0.0000,  0.0000,  0.0000)
  51 F      9.313892    1.958092   13.747426    ( 0.0000,  0.0000,  0.0000)

Unit cell:
           periodic     x           y           z      points  spacing
  1. axis:    yes    9.401191    0.000000   -0.056491    48     0.1959
  2. axis:    yes    0.000000    5.359467    0.000000    28     0.1914
  3. axis:    yes    0.000000    0.000000   14.955651    76     0.1968

  Lengths:   9.401361   5.359467  14.955651
  Angles:   90.000000  90.344282  90.000000

Effective grid spacing dv^(1/3) = 0.1947

                     log10-error:    total        iterations:
           time      wfs    density  energy       fermi  poisson
iter:   1  03:39:41  +1.49   +inf  -311.503397    3      18     
iter:   2  03:40:09  +0.30   +inf  -313.086494    3             
iter:   3  03:40:37  -0.28   +inf  -313.519984    2             
iter:   4  03:41:09  -0.46  -1.13  -310.601293    3      13     
iter:   5  03:41:44  -0.44  -1.16  -324.853053    3      24     
iter:   6  03:42:20  -0.10  -1.12  -321.552216    36     32     
iter:   7  03:42:54  -0.26  -1.26  -315.851126    3      34     
iter:   8  03:43:29  -0.65  -1.26  -305.447679    4      33     
iter:   9  03:44:02  -0.95  -1.37  -305.193911    4      27     
iter:  10  03:44:35  -1.23  -1.37  -300.621792    4      17     
iter:  11  03:45:08  -1.77  -1.44  -300.781699    3      12     
iter:  12  03:45:41  -1.55  -1.46  -302.305332    4      23     
iter:  13  03:46:18  -1.41  -1.42  -320.575503    37     33     
iter:  14  03:46:57  -0.96  -1.26  -303.036763    4      31     
iter:  15  03:47:38  -1.15  -1.46  -300.894625    4      25     
iter:  16  03:48:12  -1.09  -1.58  -309.273988    3      30     
iter:  17  03:48:48  -1.20  -1.39  -303.170437    3      31     
iter:  18  03:49:21  -1.25  -1.53  -300.733894    4      25     
iter:  19  03:49:57  -1.48  -1.58  -306.666940    4      29     
iter:  20  03:50:32  -1.49  -1.44  -300.540038    4      30     
iter:  21  03:51:07  -2.07  -1.60  -299.778670    2      20     
iter:  22  03:51:41  -2.34  -1.66  -300.343766    3      21     
iter:  23  03:52:20  -1.95  -1.64  -302.143341    3      27     
iter:  24  03:52:58  -1.71  -1.57  -301.981558    3      28     
iter:  25  03:53:33  -1.50  -1.58  -313.224199    3      31     
iter:  26  03:54:07  -1.30  -1.39  -300.553265    4      31     
iter:  27  03:54:40  -1.76  -1.67  -300.232943    3      14     
iter:  28  03:55:13  -2.20  -1.68  -299.884311    3      16     
iter:  29  03:55:49  -2.41  -1.73  -300.234180    3      20     
iter:  30  03:56:22  -2.33  -1.71  -299.930363    3      23     
iter:  31  03:56:56  -1.70  -1.74  -312.322713    3      31     
iter:  32  03:57:31  -1.34  -1.42  -301.072527    4      32     
iter:  33  03:58:04  -1.60  -1.70  -302.394538    3      20     
iter:  34  03:58:38  -1.66  -1.63  -300.844323    3      25     
iter:  35  03:59:12  -1.85  -1.74  -300.107874    3      17     
iter:  36  03:59:47  -2.12  -1.85  -300.249253    3      24     
iter:  37  04:00:22  -2.19  -1.78  -300.677959    3      25     
iter:  38  04:00:56  -2.14  -1.76  -299.874772    3      25     
iter:  39  04:01:30  -2.45  -1.87  -299.812803    2      17     
iter:  40  04:02:04  -2.40  -1.89  -300.068247    3      20     
iter:  41  04:02:39  -2.25  -1.88  -300.041364    2      22     
iter:  42  04:03:14  -2.01  -1.89  -302.008666    3      27     
iter:  43  04:03:49  -1.97  -1.71  -300.767244    3      27     
iter:  44  04:04:24  -1.99  -1.84  -300.230623    3      24     
iter:  45  04:04:59  -2.32  -1.89  -299.762276    3      22     
iter:  46  04:05:36  -2.67  -1.97  -299.743727    3      18     
iter:  47  04:06:20  -2.62  -1.99  -299.795213    2      15     
iter:  48  04:07:05  -2.79  -1.99  -299.656209    3      20     
iter:  49  04:07:53  -2.58  -2.03  -300.303315    3      23     
iter:  50  04:08:29  -2.41  -1.92  -299.750839    3      22     
iter:  51  04:09:03  -2.26  -2.05  -300.262696    3      19     
iter:  52  04:09:38  -2.31  -1.94  -299.800699    2      22     
iter:  53  04:10:12  -2.46  -2.03  -300.332810    3      24     
iter:  54  04:10:47  -2.35  -1.92  -299.788650    3      25     
iter:  55  04:11:21  -2.64  -2.04  -299.754909    2      17     
iter:  56  04:11:54  -2.84  -2.07  -299.655252    3      13     
iter:  57  04:12:28  -3.25  -2.13  -299.662585    3      17     
iter:  58  04:13:02  -3.23  -2.13  -299.618191    2      15     
iter:  59  04:13:36  -3.36  -2.16  -299.677641    3      15     
iter:  60  04:14:11  -2.30  -2.18  -301.290273    3      26     
iter:  61  04:14:46  -2.16  -1.79  -299.809637    3      26     
iter:  62  04:15:20  -2.42  -2.14  -300.174293    3      21     
iter:  63  04:15:55  -2.51  -2.04  -299.904353    3      23     
iter:  64  04:16:28  -2.64  -2.14  -299.639907    3      18     
iter:  65  04:17:00  -3.22  -2.24  -299.627129    3      13     
iter:  66  04:17:33  -2.75  -2.27  -300.066944    3      23     
iter:  67  04:18:06  -2.67  -2.05  -299.636929    3      23     
iter:  68  04:18:39  -2.93  -2.29  -299.737231    3      17     
iter:  69  04:19:12  -2.80  -2.27  -299.757995    3      18     
iter:  70  04:19:47  -2.46  -2.31  -299.990048    3      21     
iter:  71  04:20:20  -2.52  -2.14  -299.718283    3      17     
iter:  72  04:20:53  -2.88  -2.32  -299.750074    3      20     
iter:  73  04:21:26  -2.74  -2.39  -299.804113    3      21     
iter:  74  04:22:01  -2.92  -2.22  -299.657534    2      21     
iter:  75  04:22:34  -3.08  -2.41  -299.679905    3      12     
iter:  76  04:23:06  -3.10  -2.43  -299.634204    3      14     
iter:  77  04:23:39  -3.40  -2.51  -299.609271    2      15     
iter:  78  04:24:12  -2.95  -2.57  -299.983684    3      21     
iter:  79  04:24:45  -2.84  -2.20  -299.620152    3      20     
iter:  80  04:25:17  -3.54  -2.55  -299.596547    2      16     
iter:  81  04:25:49  -3.55  -2.64  -299.623864    3      8      
iter:  82  04:26:21  -3.42  -2.55  -299.614848    2      13     
iter:  83  04:27:00  -3.54  -2.58  -299.609783    2      15     
iter:  84  04:27:40  -3.56  -2.58  -299.621185    2      16     
iter:  85  04:28:19  -3.76  -2.56  -299.590371    2      14     
iter:  86  04:28:51  -3.84  -2.71  -299.622789    2      16     
iter:  87  04:29:24  -3.68  -2.55  -299.593092    2      15     
iter:  88  04:29:56  -3.94  -2.70  -299.592511    2      10     
iter:  89  04:30:28  -3.95  -2.70  -299.596786    2      12     
iter:  90  04:31:01  -3.99  -2.68  -299.592787    2      13     
iter:  91  04:31:35  -4.25  -2.72  -299.585376    2      9      
iter:  92  04:32:07  -4.19  -2.79  -299.593904    2      10     
iter:  93  04:32:41  -4.08  -2.72  -299.584603    2      12     
iter:  94  04:33:14  -4.30  -2.81  -299.594689    2      11     
iter:  95  04:33:47  -4.02  -2.75  -299.602475    2      13     
iter:  96  04:34:19  -3.88  -2.72  -299.604596    2      15     
iter:  97  04:34:51  -3.89  -2.71  -299.586547    2      12     
iter:  98  04:35:23  -4.15  -2.81  -299.593980    2      8      
iter:  99  04:35:57  -3.92  -2.77  -299.588195    2      13     
iter: 100  04:36:35  -4.22  -2.83  -299.595648    2      13     
iter: 101  04:37:14  -4.16  -2.80  -299.593532    2      12     
iter: 102  04:37:54  -4.12  -2.84  -299.595147    2      13     
iter: 103  04:38:29  -3.86  -2.82  -299.594530    2      13     
iter: 104  04:39:01  -4.07  -2.80  -299.598695    3      6      
iter: 105  04:39:35  -3.85  -2.89  -299.603952    3      15     
iter: 106  04:40:08  -4.00  -2.75  -299.585651    2      13     
iter: 107  04:40:40  -4.42  -2.94  -299.586637    2      9      
iter: 108  04:41:14  -4.63  -2.98  -299.586822    2      9      
iter: 109  04:41:46  -4.09  -3.04  -299.595076    2      12     
iter: 110  04:42:19  -4.10  -2.82  -299.591027    2      6      
iter: 111  04:42:53  -4.26  -2.98  -299.593465    2      14     
iter: 112  04:43:25  -4.14  -2.91  -299.590458    2      12     
iter: 113  04:43:57  -4.46  -3.03  -299.585475    2      9      
iter: 114  04:44:28  -4.87  -3.11  -299.582627    2      5      
iter: 115  04:45:00  -4.58  -3.17  -299.589402    2      8      
iter: 116  04:45:32  -4.56  -3.07  -299.589195    2      10     
iter: 117  04:46:04  -4.36  -3.08  -299.594423    2      13     
iter: 118  04:46:42  -4.41  -2.93  -299.584833    2      11     
iter: 119  04:47:20  -5.18  -3.26  -299.584347    2      4      
iter: 120  04:47:57  -5.52  -3.27  -299.584571    2      4      
iter: 121  04:48:28  -5.09  -3.29  -299.584253    2      5      
iter: 122  04:49:01  -5.00  -3.22  -299.584626    2      7      
iter: 123  04:49:32  -4.78  -3.24  -299.590467    2      9      
iter: 124  04:50:05  -4.61  -3.11  -299.584768    2      9      
iter: 125  04:50:38  -5.04  -3.27  -299.584278    2      6      
iter: 126  04:51:09  -5.48  -3.32  -299.583820    2      4      
iter: 127  04:51:41  -5.47  -3.35  -299.584571    2      4      
iter: 128  04:52:14  -5.30  -3.34  -299.584397    2      5      
iter: 129  04:52:45  -5.13  -3.35  -299.586586    2      6      
iter: 130  04:53:17  -4.72  -3.34  -299.585986    2      9      
iter: 131  04:53:49  -4.63  -3.30  -299.585837    2      7      
iter: 132  04:54:20  -4.67  -3.21  -299.584073    2      9      
iter: 133  04:55:02  -5.07  -3.49  -299.584731    2      5      
iter: 134  04:55:49  -4.98  -3.66  -299.586302    2      7      
iter: 135  04:56:27  -5.11  -3.38  -299.584869    2      5      
iter: 136  04:56:59  -5.15  -3.72  -299.585368    2      7      
iter: 137  04:57:31  -5.19  -3.43  -299.584339    2      4      
iter: 138  04:58:02  -5.98  -3.80  -299.584452    2      4      
iter: 139  04:58:34  -5.98  -3.89  -299.584388    2      3      
iter: 140  04:59:09  -6.11  -3.95  -299.584377    2      3      
iter: 141  04:59:41  -6.14  -3.88  -299.584428    2      3      
iter: 142  05:00:16  -6.38  -3.98  -299.584345    2      3      
iter: 143  05:00:51  -6.37  -4.00  -299.584472    2      3      
iter: 144  05:01:22  -6.50  -4.01  -299.584354    2      3      
iter: 145  05:01:53  -6.57  -3.97  -299.584367    2      2      
iter: 146  05:02:25  -6.48  -4.08  -299.584543    2      3      
iter: 147  05:02:58  -6.25  -4.01  -299.584426    2      3      
iter: 148  05:03:30  -6.55  -4.09  -299.584342    2      3      
iter: 149  05:04:01  -6.24  -4.23  -299.584676    2      3      
iter: 150  05:04:32  -5.97  -4.13  -299.584252    2      3      
iter: 151  05:05:03  -6.24  -4.11  -299.584419    2      3      
iter: 152  05:05:34  -7.01  -4.32  -299.584425    2      2      
iter: 153  05:06:05  -7.00  -4.36  -299.584300    2      2      
iter: 154  05:06:37  -7.11  -4.37  -299.584477    2      2      
iter: 155  05:07:10  -7.28  -4.45  -299.584090    1      2      
iter: 156  05:07:42  -7.09  -4.44  -299.584348    2      2      
iter: 157  05:08:14  -6.76  -4.54  -299.584781    2      2      
iter: 158  05:08:46  -6.73  -4.32  -299.584480    2      3      
iter: 159  05:09:18  -7.07  -4.44  -299.584476    2      3      
iter: 160  05:09:50  -7.27  -5.01  -299.584535    2      2      
iter: 161  05:10:22  -7.34  -4.84  -299.584315    1      2      
iter: 162  05:10:54  -7.67  -4.80  -299.584529    2      1      

Converged after 162 iterations.

Dipole moment: (-28.208467, -6.321506, 2.518937) |e|*Ang

Energy contributions relative to reference atoms: (reference = -648925.267931)

Kinetic:       +211.087060
Potential:     -243.272689
External:        +0.000000
XC:            -279.876953
Entropy (-ST):   -2.810351
Local:          +13.883229
--------------------------
Free energy:   -300.989705
Extrapolated:  -299.584529

Fermi level: 1.58780

 Band  Eigenvalues  Occupancy
    0    -22.43486    2.00000
    1    -22.25558    2.00000
    2    -22.23596    2.00000
    3    -22.12188    2.00000
    4    -22.11005    2.00000
    5    -22.07167    2.00000
    6    -22.03319    2.00000
    7    -21.96176    2.00000
    8    -21.95734    2.00000
    9    -21.90644    2.00000
   10    -21.89442    2.00000
   11    -21.78491    2.00000
   12    -21.72530    2.00000
   13    -21.64205    2.00000
   14    -21.63080    2.00000
   15    -21.59867    2.00000
   16    -21.55853    2.00000
   17    -21.52513    2.00000
   18    -21.49663    2.00000
   19    -21.42951    2.00000
   20    -21.42297    2.00000
   21    -21.39428    2.00000
   22    -21.37548    2.00000
   23    -21.33464    2.00000
   24    -21.30977    2.00000
   25    -21.28777    2.00000
   26    -21.22963    2.00000
   27    -21.21816    2.00000
   28    -21.15550    2.00000
   29    -21.12543    2.00000
   30    -21.08659    2.00000
   31    -21.02771    2.00000
   32    -17.09104    2.00000
   33    -17.07911    2.00000
   34    -16.94512    2.00000
   35    -16.87268    2.00000
   36     -5.44001    2.00000
   37     -5.39987    2.00000
   38     -5.31042    2.00000
   39     -5.24297    2.00000
   40     -5.21583    2.00000
   41     -5.16508    2.00000
   42     -5.15113    2.00000
   43     -5.10203    2.00000
   44     -4.95925    2.00000
   45     -4.85332    2.00000
   46     -4.79392    2.00000
   47     -4.67682    2.00000
   48     -4.62395    2.00000
   49     -4.58881    2.00000
   50     -4.55810    2.00000
   51     -4.53807    2.00000
   52     -4.52182    2.00000
   53     -4.46283    2.00000
   54     -4.45400    2.00000
   55     -4.43399    2.00000
   56     -4.40723    2.00000
   57     -4.38287    2.00000
   58     -4.36420    2.00000
   59     -4.33077    2.00000
   60     -4.30510    2.00000
   61     -4.29962    2.00000
   62     -4.27404    2.00000
   63     -4.24808    2.00000
   64     -4.22995    2.00000
   65     -4.19503    2.00000
   66     -4.16532    2.00000
   67     -4.15546    2.00000
   68     -4.11876    2.00000
   69     -4.10549    2.00000
   70     -4.08733    2.00000
   71     -4.06806    2.00000
   72     -4.03608    2.00000
   73     -4.02630    2.00000
   74     -3.99172    2.00000
   75     -3.98473    2.00000
   76     -3.93283    2.00000
   77     -3.92300    2.00000
   78     -3.91722    2.00000
   79     -3.86076    2.00000
   80     -3.81855    2.00000
   81     -3.78490    2.00000
   82     -3.68400    2.00000
   83     -3.64577    2.00000
   84     -3.61980    2.00000
   85     -3.54937    2.00000
   86     -3.51124    2.00000
   87     -3.48436    2.00000
   88     -3.45907    2.00000
   89     -3.41444    2.00000
   90     -3.38133    2.00000
   91     -3.36430    2.00000
   92     -3.29949    2.00000
   93     -3.26308    2.00000
   94     -3.18634    2.00000
   95     -3.16930    2.00000
   96     -3.12915    2.00000
   97     -3.10055    2.00000
   98     -3.06183    2.00000
   99     -3.05006    2.00000
  100     -3.02210    2.00000
  101     -2.96829    2.00000
  102     -2.95337    2.00000
  103     -2.95074    2.00000
  104     -2.91386    2.00000
  105     -2.90700    2.00000
  106     -2.88225    2.00000
  107     -2.82474    2.00000
  108     -2.79815    2.00000
  109     -2.75272    2.00000
  110     -2.74716    2.00000
  111     -2.72837    2.00000
  112     -2.68663    2.00000
  113     -2.67581    2.00000
  114     -2.63927    2.00000
  115     -2.56932    2.00000
  116     -2.56309    2.00000
  117     -2.51870    2.00000
  118     -2.49529    2.00000
  119     -2.47491    2.00000
  120     -2.43762    2.00000
  121     -2.40770    2.00000
  122     -2.39538    2.00000
  123     -2.37760    2.00000
  124     -2.34742    2.00000
  125     -2.29413    2.00000
  126     -2.26240    2.00000
  127     -2.25409    2.00000
  128     -2.22819    2.00000
  129     -2.20305    2.00000
  130     -2.19704    2.00000
  131     -2.16122    2.00000
  132     -2.14131    2.00000
  133     -2.12915    2.00000
  134     -2.08677    2.00000
  135     -2.03994    2.00000
  136     -2.02043    2.00000
  137     -1.98567    2.00000
  138     -1.91520    2.00000
  139     -1.89877    2.00000
  140     -1.85501    2.00000
  141     -1.83845    2.00000
  142     -1.78341    2.00000
  143     -1.77423    2.00000
  144      0.80928    1.99917
  145      0.83007    1.99898
  146      0.83909    1.99888
  147      0.89092    1.99812
  148      0.89777    1.99799
  149      0.91264    1.99766
  150      0.96243    1.99616
  151      0.96572    1.99603
  152      1.00155    1.99433
  153      1.00947    1.99386
  154      1.03529    1.99206
  155      1.03979    1.99170
  156      1.04467    1.99128
  157      1.06266    1.98957
  158      1.08144    1.98743
  159      1.09554    1.98555
  160      1.13088    1.97948
  161      1.16153    1.97222
  162      1.17191    1.96923
  163      1.17629    1.96788
  164      1.20287    1.95830
  165      1.21296    1.95397
  166      1.21550    1.95282
  167      1.22102    1.95021
  168      1.23791    1.94131
  169      1.24899    1.93466
  170      1.25413    1.93134
  171      1.26436    1.92422
  172      1.27575    1.91546
  173      1.28630    1.90650
  174      1.30512    1.88822
  175      1.31641    1.87568
  176      1.32553    1.86462
  177      1.36656    1.80272
  178      1.38181    1.77390
  179      1.38925    1.75853
  180      1.40642    1.71965
  181      1.42350    1.67590
  182      1.44468    1.61417
  183      1.45242    1.58950
  184      1.46216    1.55680
  185      1.48521    1.47225
  186      1.51209    1.36147
  187      1.53397    1.26286
  188      1.58736    1.00221
  189      1.60766    0.90105
  190      1.62154    0.83288
  191      1.67697    0.58151
  192      1.69253    0.51950
  193      1.72456    0.40603
  194      1.74020    0.35776
  195      1.75587    0.31401
  196      1.83162    0.16062
  197      1.85495    0.12935
  198      1.87832    0.10380
  199      1.90107    0.08356
  200      1.92717    0.06499
  201      1.93956    0.05763
  202      1.94959    0.05227
  203      2.02514    0.02490
  204      2.11909    0.00981
  205      2.16770    0.00604
  206      2.22076    0.00356
  207      2.25414    0.00255
  208      2.29254    0.00174
  209      2.43567    0.00042
  210      2.45747    0.00033
  211      2.47139    0.00029
  212      2.50038    0.00022
  213      2.53147    0.00016
  214      2.58780    0.00009
  215      2.71480    0.00003
  216      2.73113    0.00002
  217      2.75174    0.00002
  218      2.82267    0.00001
  219      2.83708    0.00001
  220      2.86453    0.00001
  221      2.91652    0.00000
  222      2.99104    0.00000
  223      3.02565    0.00000
  224      4.92235    0.00000
  225      5.76820    0.00000
  226      6.19467    0.00000
  227      6.82076    0.00000
  228      7.42939    0.00000
  229      7.68855    0.00000
  230      7.75096    0.00000
  231      7.98303    0.00000
  232      8.26746    0.00000
  233      8.46072    0.00000
  234      8.59600    0.00000
  235      8.94015    0.00000
  236      9.89584    0.00000
  237     10.05858    0.00000
  238     10.07687    0.00000
  239     10.16150    0.00000
  240     10.40830    0.00000
  241     10.73108    0.00000
  242     10.82845    0.00000
  243     10.87757    0.00000
  244     10.94647    0.00000
  245     10.98420    0.00000
  246     11.02046    0.00000
  247     11.25149    0.00000
  248     11.28852    0.00000
  249     11.43360    0.00000
  250     11.56845    0.00000
  251     11.69007    0.00000
  252     11.77064    0.00000
  253     11.87566    0.00000
  254     11.93225    0.00000
  255     11.95245    0.00000
  256     12.06649    0.00000
  257     12.10098    0.00000
  258     12.26513    0.00000
  259     12.31006    0.00000
  260     12.34335    0.00000
  261     12.40532    0.00000
  262     12.49113    0.00000
  263     12.51245    0.00000
  264     12.56243    0.00000
  265     12.59209    0.00000
  266     12.61575    0.00000
  267     12.68228    0.00000
  268     12.71827    0.00000
  269     12.79031    0.00000
  270     12.81022    0.00000
  271     13.00161    0.00000
  272     13.06635    0.00000
  273     13.14549    0.00000
  274     13.25455    0.00000
  275     13.28493    0.00000
  276     13.32466    0.00000
  277     13.38419    0.00000
  278     13.46131    0.00000
  279     13.51657    0.00000
  280     13.69259    0.00000
  281     14.00146    0.00000
  282     14.03984    0.00000
  283     14.23892    0.00000
  284     14.39066    0.00000
  285     14.43500    0.00000
  286     14.51955    0.00000
  287     14.54105    0.00000

Timing:                              incl.     excl.
-----------------------------------------------------------
Hamiltonian:                         5.093     0.000   0.0% |
 Atomic:                             2.352     0.005   0.0% |
  XC Correction:                     2.347     2.347   0.0% |
 Calculate atomic Hamiltonians:      0.029     0.029   0.0% |
 Communicate:                        0.000     0.000   0.0% |
 Hartree integrate/restrict:         0.015     0.015   0.0% |
 Initialize Hamiltonian:             0.000     0.000   0.0% |
 Poisson:                            2.057     2.057   0.0% |
 XC 3D grid:                         0.634     0.634   0.0% |
 vbar:                               0.005     0.005   0.0% |
LCAO initialization:                20.880     0.235   0.0% |
 LCAO eigensolver:                   2.084     0.000   0.0% |
  Calculate projections:             0.023     0.023   0.0% |
  DenseAtomicCorrection:             0.022     0.022   0.0% |
  Distribute overlap matrix:         0.000     0.000   0.0% |
  Orbital Layouts:                   0.059     0.059   0.0% |
  Potential matrix:                  1.980     1.980   0.0% |
 LCAO to grid:                      17.299    17.299   0.3% |
 Set positions (LCAO WFS):           1.261     0.000   0.0% |
  Basic WFS set positions:           0.002     0.002   0.0% |
  Basis functions set positions:     0.000     0.000   0.0% |
  TCI: Calculate S, T, P:            1.259     1.259   0.0% |
SCF-cycle:                        5507.252     0.132   0.0% |
 Davidson:                        4717.609   717.767  13.0% |----|
  Apply hamiltonian:               107.553   107.553   1.9% ||
  Subspace diag:                  1380.496     0.032   0.0% |
   calc_h_matrix:                  535.278   428.001   7.7% |--|
    Apply hamiltonian:             107.277   107.277   1.9% ||
   diagonalize:                      3.479     3.479   0.1% |
   rotate_psi:                     841.707   841.707  15.2% |-----|
  calc. matrices:                 1649.807  1542.094  27.9% |----------|
   Apply hamiltonian:              107.713   107.713   1.9% ||
  diagonalize:                      15.382    15.382   0.3% |
  rotate_psi:                      846.604   846.604  15.3% |-----|
 Density:                           16.777     0.004   0.0% |
  Atomic density matrices:           1.004     1.004   0.0% |
  Mix:                               7.890     7.890   0.1% |
  Multipole moments:                 0.195     0.195   0.0% |
  Pseudo density:                    7.683     7.680   0.1% |
   Symmetrize density:               0.004     0.004   0.0% |
 Hamiltonian:                      767.347     0.022   0.0% |
  Atomic:                          374.927     0.827   0.0% |
   XC Correction:                  374.100   374.100   6.8% |--|
  Calculate atomic Hamiltonians:     4.979     4.979   0.1% |
  Communicate:                       0.002     0.002   0.0% |
  Hartree integrate/restrict:        2.742     2.742   0.0% |
  Poisson:                         279.157   279.157   5.0% |-|
  XC 3D grid:                      104.557   104.557   1.9% ||
  vbar:                              0.962     0.962   0.0% |
 Orthonormalize:                     5.388     0.000   0.0% |
  calc_s_matrix:                     1.573     1.573   0.0% |
  inverse-cholesky:                  0.004     0.004   0.0% |
  projections:                       1.201     1.201   0.0% |
  rotate_psi_s:                      2.609     2.609   0.0% |
Set symmetry:                        0.001     0.001   0.0% |
Other:                               1.357     1.357   0.0% |
-----------------------------------------------------------
Total:                                      5534.582 100.0%

Memory usage: 1.07 GiB
Date: Fri Mar 29 05:10:54 2019
