
  ___ ___ ___ _ _ _  
 |   |   |_  | | | | 
 | | | | | . | | | | 
 |__ |  _|___|_____|  1.4.0
 |___|_|             

User:   murakami@tssm1.eng.shizuoka.ac.jp
Date:   Tue Mar 26 20:03:32 2019
Arch:   x86_64
Pid:    31289
Python: 3.6.5
gpaw:   /home/murakami/.local/lib/python3.6/site-packages/gpaw
_gpaw:  /home/murakami/.local/lib/python3.6/site-packages/
        _gpaw.cpython-36m-x86_64-linux-gnu.so
ase:    /home/murakami/.local/lib/python3.6/site-packages/ase (version 3.16.2)
numpy:  /home/murakami/.local/lib/python3.6/site-packages/numpy (version 1.15.2)
scipy:  /home/murakami/.local/lib/python3.6/site-packages/scipy (version 1.1.0)
units:  Angstrom and eV
cores:  1

Input parameters:
  kpts: {size: (1, 1, 1)}
  maxiter: 300
  xc: PBE

System changes: positions, numbers, cell, pbc, initial_charges, initial_magmoms 

Initialize ...

Fe-setup:
  name: Iron
  id: 37abbd8d6c3c35915a9b583b742da910
  Z: 26
  valence: 8
  core: 18
  charge: 0.0
  file: /home/murakami/Public/gpaw-setups-0.9.20000/Fe.PBE.gz
  cutoffs: 1.06(comp), 2.06(filt), 2.67(core), lmax=2
  valence states:
                energy  radius
    4s(2.00)    -5.291   1.164
    4p(0.00)    -1.326   1.058
    3d(6.00)    -7.505   1.058
    *s          21.920   1.164
    *p          25.885   1.058
    *d          19.706   1.058

  Using partial waves for Fe as LCAO basis

O-setup:
  name: Oxygen
  id: 32ecd46bf208036f09c70b0ec9a88b78
  Z: 8
  valence: 6
  core: 2
  charge: 0.0
  file: /home/murakami/Public/gpaw-setups-0.9.20000/O.PBE.gz
  cutoffs: 0.67(comp), 1.17(filt), 0.83(core), lmax=2
  valence states:
                energy  radius
    2s(2.00)   -23.961   0.688
    2p(4.00)    -9.029   0.598
    *s           3.251   0.688
    *p          18.182   0.598
    *d           0.000   0.619

  Using partial waves for O as LCAO basis

F-setup:
  name: Fluorine
  id: 9cd46ba2a61e170ad72278be75b55cc0
  Z: 9
  valence: 7
  core: 2
  charge: 0.0
  file: /home/murakami/Public/gpaw-setups-0.9.20000/F.PBE.gz
  cutoffs: 0.64(comp), 1.14(filt), 0.74(core), lmax=2
  valence states:
                energy  radius
    2s(2.00)   -29.898   0.635
    2p(5.00)   -11.110   0.635
    *s          -2.687   0.635
    *p          16.102   0.635
    *d           0.000   0.635

  Using partial waves for F as LCAO basis

Reference energy: -319034.472395

Spin-paired calculation

Occupation numbers:
  Fermi-Dirac: width=0.1000 eV

Convergence criteria:
  Maximum total energy change: 0.0005 eV / electron
  Maximum integral of absolute density change: 0.0001 electrons
  Maximum integral of absolute eigenstate change: 4e-08 eV^2
  Maximum number of iterations: 300

Symmetries present (total): 1

  ( 1  0  0)
  ( 0  1  0)
  ( 0  0  1)

1 k-point (Gamma)
1 k-point in the irreducible part of the Brillouin zone
       k-points in crystal coordinates                weights
   0:     0.00000000    0.00000000    0.00000000          1/1

Wave functions: Uniform real-space grid
  Kinetic energy operator: 12*3+1=37 point O(h^6) finite-difference Laplacian
  ScaLapack parameters: grid=1x1, blocksize=None 

Eigensolver
   Davidson(niter=1, smin=None, normalize=True) 

Densities:
  Coarse grid: 28*24*52 grid
  Fine grid: 56*48*104 grid
  Total Charge: 0.000000 

Density mixing:
  Method: separate
  Backend: pulay
  Linear mixing parameter: 0.05
  Mixing with 5 old densities
  Damping of long wave oscillations: 50 

Hamiltonian:
  XC and Coulomb potentials evaluated on a 56*48*104 grid
  Using the PBE Exchange-Correlation functional
  Interpolation: tri-quintic (5. degree polynomial)
  Poisson solver: Jacobi solver with 4 multi-grid levels
    Coarsest grid: 7 x 6 x 13 points
    Stencil: 12*3+1=37 point O(h^6) finite-difference Laplacian
    Max iterations: 1000
    Tolerance: 2.000000e-10 

Memory estimate:
  Process memory now: 357.29 MiB
  Calculator: 140.76 MiB
    Density: 46.74 MiB
      Arrays: 6.93 MiB
      Localized functions: 37.14 MiB
      Mixer: 2.67 MiB
    Hamiltonian: 12.51 MiB
      Arrays: 4.53 MiB
      XC: 0.00 MiB
      Poisson: 5.17 MiB
      vbar: 2.81 MiB
    Wavefunctions: 81.51 MiB
      Arrays psit_nG: 36.26 MiB
      Eigensolver: 39.01 MiB
      Projections: 0.37 MiB
      Projectors: 5.88 MiB

Total number of cores used: 1

Number of atoms: 24
Number of atomic orbitals: 136
Number of bands in calculation: 136
Bands to converge: occupied states only
Number of valence electrons: 174

... initialized

Initializing position-dependent things.

Density initialized from atomic densities
Creating initial wave functions:
  136 bands from LCAO basis set

                                 
                                 
                                 
                                 
                Fe               
                     O           
                      Fe         
          FF   F    Fe           
                      F          
           Fe                    
           F       F             
              FF       Fe        
               Fe                
                                 
             FeF FO   F          
                                 
       F          Fe             
            F      F             
                                 
                                 
                                 
                                 
                                 

Positions:
   0 Fe     1.405270    1.189211    7.872964    ( 0.0000,  0.0000,  0.0000)
   1 Fe     1.382058    3.596231    2.402354    ( 0.0000,  0.0000,  0.0000)
   2 Fe     2.941873    1.172318    4.985987    ( 0.0000,  0.0000,  0.0000)
   3 Fe     2.918336    3.613124   10.391909    ( 0.0000,  0.0000,  0.0000)
   4 Fe     4.312713    1.106753    2.267992    ( 0.0000,  0.0000,  0.0000)
   5 Fe     4.287911    3.678689    7.673914    ( 0.0000,  0.0000,  0.0000)
   6 Fe     5.670054    1.155072   10.023581    ( 0.0000,  0.0000,  0.0000)
   7 Fe     5.646184    3.630370    4.585667    ( 0.0000,  0.0000,  0.0000)
   8 O      4.463127    0.279843    3.895984    ( 0.0000,  0.0000,  0.0000)
   9 O      4.422378    4.505599    9.301906    ( 0.0000,  0.0000,  0.0000)
  10 F      0.075926    0.275431    1.965427    ( 0.0000,  0.0000,  0.0000)
  11 F      0.035091    4.510011    7.371349    ( 0.0000,  0.0000,  0.0000)
  12 F      1.254062    2.150774    5.995808    ( 0.0000,  0.0000,  0.0000)
  13 F      1.249396    2.634668    0.589886    ( 0.0000,  0.0000,  0.0000)
  14 F      1.599270    0.247632    9.748252    ( 0.0000,  0.0000,  0.0000)
  15 F      1.590662    4.537810    4.337816    ( 0.0000,  0.0000,  0.0000)
  16 F      2.789207    2.170342    3.027646    ( 0.0000,  0.0000,  0.0000)
  17 F      2.698833    2.615100    8.405057    ( 0.0000,  0.0000,  0.0000)
  18 F      2.995581    0.170362    6.876035    ( 0.0000,  0.0000,  0.0000)
  19 F      2.952720    4.615080    1.470113    ( 0.0000,  0.0000,  0.0000)
  20 F      4.122914    2.120047    0.414042    ( 0.0000,  0.0000,  0.0000)
  21 F      4.117384    2.693543    5.819964    ( 0.0000,  0.0000,  0.0000)
  22 F      5.562467    2.184578    8.092159    ( 0.0000,  0.0000,  0.0000)
  23 F      5.558452    2.600864    2.686237    ( 0.0000,  0.0000,  0.0000)

Unit cell:
           periodic     x           y           z      points  spacing
  1. axis:    yes    5.735919    0.000000   -0.790267    28     0.2048
  2. axis:    yes   -0.046147    4.785442    0.000000    24     0.1994
  3. axis:    yes    0.000000    0.000000   10.811844    52     0.2060

  Lengths:   5.790103   4.785664  10.811844
  Angles:   90.000000  97.844547  90.547327

Effective grid spacing dv^(1/3) = 0.2040

                     log10-error:    total        iterations:
           time      wfs    density  energy       fermi  poisson
iter:   1  20:03:46  +1.57   +inf  -150.282597    3      17     
iter:   2  20:03:49  +0.21   +inf  -150.933870    3             
iter:   3  20:03:52  -0.38   +inf  -151.121016    2             
iter:   4  20:03:57  -0.63  -1.14  -149.396829    3      8      
iter:   5  20:04:02  -0.38  -1.18  -157.467918    4      13     
iter:   6  20:04:07  -0.30  -1.19  -147.888299    3      13     
iter:   7  20:04:12  -0.68  -1.36  -146.304439    3      12     
iter:   8  20:04:17  -1.47  -1.43  -146.097773    3      11     
iter:   9  20:04:23  -1.56  -1.44  -146.192399    4      11     
iter:  10  20:04:28  -1.66  -1.43  -145.930836    3      11     
iter:  11  20:04:33  -1.58  -1.46  -146.416779    4      12     
iter:  12  20:04:38  -1.52  -1.44  -146.198081    4      13     
iter:  13  20:04:44  -1.60  -1.47  -146.085877    3      12     
iter:  14  20:04:49  -1.44  -1.50  -146.007107    4      13     
iter:  15  20:04:54  -1.22  -1.57  -146.873003    3      12     
iter:  16  20:04:59  -1.11  -1.57  -147.657164    3      14     
iter:  17  20:05:05  -1.21  -1.52  -147.228631    4      14     
iter:  18  20:05:10  -1.27  -1.53  -146.593180    3      13     
iter:  19  20:05:15  -1.46  -1.62  -146.044026    3      13     
iter:  20  20:05:20  -2.03  -1.67  -145.578871    2      11     
iter:  21  20:05:25  -2.65  -1.76  -145.630127    3      7      
iter:  22  20:05:31  -2.19  -1.77  -145.750820    3      10     
iter:  23  20:05:36  -2.05  -1.75  -145.876063    3      12     
iter:  24  20:05:41  -1.66  -1.74  -146.734598    3      13     
iter:  25  20:05:46  -1.62  -1.68  -145.955645    3      12     
iter:  26  20:05:51  -1.74  -1.89  -146.172553    2      13     
iter:  27  20:05:57  -1.92  -1.76  -145.759903    3      11     
iter:  28  20:06:02  -2.25  -1.94  -145.770845    3      10     
iter:  29  20:06:07  -2.42  -1.95  -145.627555    3      10     
iter:  30  20:06:11  -3.09  -2.01  -145.625462    3      6      
iter:  31  20:06:16  -2.63  -2.05  -145.693981    3      7      
iter:  32  20:06:21  -2.30  -2.05  -145.789453    3      10     
iter:  33  20:06:26  -2.42  -2.14  -145.626144    3      10     
iter:  34  20:06:31  -2.98  -2.70  -145.637200    2      7      
iter:  35  20:06:36  -3.24  -2.70  -145.626042    2      6      
iter:  36  20:06:41  -3.56  -2.89  -145.628598    3      6      
iter:  37  20:06:46  -3.62  -2.79  -145.627443    2      6      
iter:  38  20:06:51  -3.90  -2.94  -145.626687    3      5      
iter:  39  20:06:56  -3.95  -2.94  -145.626613    3      6      
iter:  40  20:07:01  -4.13  -2.93  -145.626379    2      6      
iter:  41  20:07:05  -4.15  -2.98  -145.629025    2      4      
iter:  42  20:07:10  -4.25  -2.97  -145.627468    3      5      
iter:  43  20:07:15  -4.24  -3.01  -145.625792    2      5      
iter:  44  20:07:20  -4.29  -2.98  -145.627039    3      5      
iter:  45  20:07:24  -4.33  -3.05  -145.628243    2      5      
iter:  46  20:07:29  -4.30  -3.01  -145.626855    2      5      
iter:  47  20:07:34  -4.44  -3.08  -145.625013    2      4      
iter:  48  20:07:39  -4.52  -3.10  -145.626521    2      4      
iter:  49  20:07:43  -4.63  -3.11  -145.627980    2      4      
iter:  50  20:07:48  -4.64  -3.13  -145.626241    2      4      
iter:  51  20:07:53  -4.79  -3.18  -145.626165    2      4      
iter:  52  20:07:58  -4.64  -3.16  -145.626552    2      5      
iter:  53  20:08:03  -4.64  -3.17  -145.628258    2      4      
iter:  54  20:08:07  -4.65  -3.20  -145.626341    2      4      
iter:  55  20:08:12  -4.77  -3.21  -145.624990    2      4      
iter:  56  20:08:17  -4.74  -3.23  -145.626354    2      4      
iter:  57  20:08:21  -5.03  -3.29  -145.626606    2      4      
iter:  58  20:08:26  -4.96  -3.30  -145.626527    2      4      
iter:  59  20:08:31  -4.99  -3.30  -145.625424    2      4      
iter:  60  20:08:36  -4.93  -3.36  -145.626891    2      4      
iter:  61  20:08:41  -5.06  -3.28  -145.627418    2      4      
iter:  62  20:08:45  -4.93  -3.40  -145.626258    2      4      
iter:  63  20:08:50  -5.07  -3.37  -145.626056    2      4      
iter:  64  20:08:55  -5.17  -3.40  -145.626103    2      4      
iter:  65  20:08:59  -5.19  -3.45  -145.626689    2      3      
iter:  66  20:09:04  -5.14  -3.48  -145.626146    2      4      
iter:  67  20:09:09  -5.23  -3.39  -145.625628    2      4      
iter:  68  20:09:13  -5.31  -3.54  -145.626386    2      3      
iter:  69  20:09:18  -5.30  -3.53  -145.626547    2      3      
iter:  70  20:09:22  -5.51  -3.55  -145.626274    2      3      
iter:  71  20:09:26  -5.42  -3.61  -145.626013    2      3      
iter:  72  20:09:31  -5.34  -3.62  -145.626525    2      4      
iter:  73  20:09:36  -5.26  -3.49  -145.626757    2      3      
iter:  74  20:09:40  -5.63  -3.67  -145.625960    2      3      
iter:  75  20:09:44  -5.32  -3.70  -145.626330    2      3      
iter:  76  20:09:49  -5.48  -3.60  -145.626176    2      4      
iter:  77  20:09:54  -5.49  -3.80  -145.626757    2      3      
iter:  78  20:09:58  -5.76  -3.76  -145.626360    2      4      
iter:  79  20:10:03  -5.59  -4.13  -145.626001    2      3      
iter:  80  20:10:07  -5.63  -3.76  -145.626272    2      3      
iter:  81  20:10:12  -6.39  -4.17  -145.626165    2      3      
iter:  82  20:10:16  -6.77  -4.63  -145.626504    2      2      
iter:  83  20:10:21  -7.19  -4.63  -145.626163    2      2      
iter:  84  20:10:25  -7.52  -4.76  -145.626448    2      1      

Converged after 84 iterations.

Dipole moment: (-1.592773, 2.941399, -3.847551) |e|*Ang

Energy contributions relative to reference atoms: (reference = -319034.472395)

Kinetic:       +122.837140
Potential:     -135.921479
External:        +0.000000
XC:            -139.497627
Entropy (-ST):   -1.197955
Local:           +7.554495
--------------------------
Free energy:   -146.225425
Extrapolated:  -145.626448

Fermi level: 3.76731

 Band  Eigenvalues  Occupancy
    0    -20.68811    2.00000
    1    -20.57605    2.00000
    2    -20.38128    2.00000
    3    -20.29576    2.00000
    4    -20.26864    2.00000
    5    -20.22365    2.00000
    6    -20.16070    2.00000
    7    -20.09453    2.00000
    8    -20.08673    2.00000
    9    -20.02607    2.00000
   10    -20.00808    2.00000
   11    -19.88280    2.00000
   12    -19.86188    2.00000
   13    -19.81988    2.00000
   14    -14.55631    2.00000
   15    -14.49919    2.00000
   16     -4.18541    2.00000
   17     -3.83192    2.00000
   18     -3.38701    2.00000
   19     -3.27225    2.00000
   20     -3.23925    2.00000
   21     -3.12789    2.00000
   22     -3.01473    2.00000
   23     -2.93972    2.00000
   24     -2.92855    2.00000
   25     -2.83273    2.00000
   26     -2.74898    2.00000
   27     -2.63190    2.00000
   28     -2.60271    2.00000
   29     -2.55489    2.00000
   30     -2.48938    2.00000
   31     -2.44822    2.00000
   32     -2.38788    2.00000
   33     -2.30772    2.00000
   34     -2.28868    2.00000
   35     -2.28129    2.00000
   36     -2.25046    2.00000
   37     -2.19057    2.00000
   38     -2.10375    2.00000
   39     -2.05663    2.00000
   40     -1.99652    2.00000
   41     -1.97084    2.00000
   42     -1.94776    2.00000
   43     -1.85800    2.00000
   44     -1.75135    2.00000
   45     -1.66776    2.00000
   46     -1.44347    2.00000
   47     -1.40026    2.00000
   48     -1.30165    2.00000
   49     -1.23318    2.00000
   50     -1.17140    2.00000
   51     -1.05900    2.00000
   52     -1.03007    2.00000
   53     -0.95673    2.00000
   54     -0.85092    2.00000
   55     -0.76184    2.00000
   56     -0.71876    2.00000
   57     -0.66903    2.00000
   58     -0.56177    2.00000
   59     -0.43319    2.00000
   60     -0.36435    2.00000
   61     -0.28697    2.00000
   62      0.47753    2.00000
   63      0.52050    2.00000
   64      2.97291    1.99929
   65      2.99008    1.99916
   66      3.05568    1.99838
   67      3.07266    1.99808
   68      3.08488    1.99783
   69      3.10333    1.99739
   70      3.14676    1.99597
   71      3.18640    1.99402
   72      3.21396    1.99213
   73      3.23436    1.99035
   74      3.29244    1.98282
   75      3.31441    1.97865
   76      3.34067    1.97233
   77      3.35887    1.96689
   78      3.37200    1.96233
   79      3.43668    1.92929
   80      3.46701    1.90542
   81      3.47327    1.89961
   82      3.51325    1.85388
   83      3.55161    1.79264
   84      3.64087    1.55956
   85      3.65663    1.50305
   86      3.69581    1.34302
   87      3.79853    0.84515
   88      3.80860    0.79645
   89      3.92576    0.34032
   90      4.02633    0.13955
   91      4.03495    0.12876
   92      4.10678    0.06492
   93      4.15948    0.03885
   94      4.24797    0.01622
   95      4.25034    0.01584
   96      4.50707    0.00122
   97      4.57787    0.00060
   98      4.92774    0.00002
   99      5.03106    0.00001
  100      5.09972    0.00000
  101      5.10504    0.00000
  102      5.22932    0.00000
  103      5.38868    0.00000
  104      6.29412    0.00000
  105      8.08168    0.00000
  106      8.59655    0.00000
  107     11.04939    0.00000
  108     11.40212    0.00000
  109     11.43443    0.00000
  110     11.59151    0.00000
  111     11.82183    0.00000
  112     12.09684    0.00000
  113     12.13262    0.00000
  114     12.29886    0.00000
  115     12.97362    0.00000
  116     13.35255    0.00000
  117     13.37452    0.00000
  118     13.73214    0.00000
  119     14.05051    0.00000
  120     14.64068    0.00000
  121     15.07191    0.00000
  122     15.12432    0.00000
  123     15.23311    0.00000
  124     15.39355    0.00000
  125     15.81234    0.00000
  126     15.92267    0.00000
  127     15.93526    0.00000
  128     15.99973    0.00000
  129     16.08084    0.00000
  130     16.20221    0.00000
  131     16.23549    0.00000
  132     16.30839    0.00000
  133     16.40362    0.00000
  134     16.53140    0.00000
  135     16.61244    0.00000

Timing:                              incl.     excl.
-----------------------------------------------------------
Hamiltonian:                         2.211     0.000   0.0% |
 Atomic:                             1.075     0.003   0.0% |
  XC Correction:                     1.072     1.072   0.3% |
 Calculate atomic Hamiltonians:      0.013     0.013   0.0% |
 Communicate:                        0.000     0.000   0.0% |
 Hartree integrate/restrict:         0.006     0.006   0.0% |
 Initialize Hamiltonian:             0.000     0.000   0.0% |
 Poisson:                            0.893     0.893   0.2% |
 XC 3D grid:                         0.222     0.222   0.1% |
 vbar:                               0.002     0.002   0.0% |
LCAO initialization:                 6.208     0.238   0.1% |
 LCAO eigensolver:                   0.972     0.000   0.0% |
  Calculate projections:             0.003     0.003   0.0% |
  DenseAtomicCorrection:             0.003     0.003   0.0% |
  Distribute overlap matrix:         0.000     0.000   0.0% |
  Orbital Layouts:                   0.009     0.009   0.0% |
  Potential matrix:                  0.957     0.957   0.2% |
 LCAO to grid:                       4.350     4.350   1.1% |
 Set positions (LCAO WFS):           0.649     0.000   0.0% |
  Basic WFS set positions:           0.001     0.001   0.0% |
  Basis functions set positions:     0.000     0.000   0.0% |
  TCI: Calculate S, T, P:            0.648     0.648   0.2% |
SCF-cycle:                         403.231     0.058   0.0% |
 Davidson:                         264.150    72.117  17.5% |------|
  Apply hamiltonian:                12.554    12.554   3.0% ||
  Subspace diag:                    65.687     0.013   0.0% |
   calc_h_matrix:                   29.949    17.384   4.2% |-|
    Apply hamiltonian:              12.565    12.565   3.0% ||
   diagonalize:                      0.349     0.349   0.1% |
   rotate_psi:                      35.375    35.375   8.6% |--|
  calc. matrices:                   76.808    64.212  15.6% |-----|
   Apply hamiltonian:               12.595    12.595   3.1% ||
  diagonalize:                       1.426     1.426   0.3% |
  rotate_psi:                       35.558    35.558   8.6% |--|
 Density:                            2.525     0.002   0.0% |
  Atomic density matrices:           0.198     0.198   0.0% |
  Mix:                               1.628     1.628   0.4% |
  Multipole moments:                 0.048     0.048   0.0% |
  Pseudo density:                    0.649     0.648   0.2% |
   Symmetrize density:               0.001     0.001   0.0% |
 Hamiltonian:                      135.863     0.009   0.0% |
  Atomic:                           87.477     0.206   0.0% |
   XC Correction:                   87.271    87.271  21.2% |-------|
  Calculate atomic Hamiltonians:     1.052     1.052   0.3% |
  Communicate:                       0.001     0.001   0.0% |
  Hartree integrate/restrict:        0.487     0.487   0.1% |
  Poisson:                          28.858    28.858   7.0% |--|
  XC 3D grid:                       17.796    17.796   4.3% |-|
  vbar:                              0.184     0.184   0.0% |
 Orthonormalize:                     0.635     0.000   0.0% |
  calc_s_matrix:                     0.148     0.148   0.0% |
  inverse-cholesky:                  0.001     0.001   0.0% |
  projections:                       0.262     0.262   0.1% |
  rotate_psi_s:                      0.224     0.224   0.1% |
Set symmetry:                        0.001     0.001   0.0% |
Other:                               0.866     0.866   0.2% |
-----------------------------------------------------------
Total:                                       412.517 100.0%

Memory usage: 357.29 MiB
Date: Tue Mar 26 20:10:25 2019
