
  ___ ___ ___ _ _ _  
 |   |   |_  | | | | 
 | | | | | . | | | | 
 |__ |  _|___|_____|  1.4.0
 |___|_|             

User:   murakami@tssm1.eng.shizuoka.ac.jp
Date:   Thu Mar 28 11:59:39 2019
Arch:   x86_64
Pid:    31289
Python: 3.6.5
gpaw:   /home/murakami/.local/lib/python3.6/site-packages/gpaw
_gpaw:  /home/murakami/.local/lib/python3.6/site-packages/
        _gpaw.cpython-36m-x86_64-linux-gnu.so
ase:    /home/murakami/.local/lib/python3.6/site-packages/ase (version 3.16.2)
numpy:  /home/murakami/.local/lib/python3.6/site-packages/numpy (version 1.15.2)
scipy:  /home/murakami/.local/lib/python3.6/site-packages/scipy (version 1.1.0)
units:  Angstrom and eV
cores:  1

Input parameters:
  kpts: {size: (1, 1, 1)}
  maxiter: 300
  xc: PBE

System changes: positions, numbers, cell, pbc, initial_charges, initial_magmoms 

Initialize ...

Fe-setup:
  name: Iron
  id: 37abbd8d6c3c35915a9b583b742da910
  Z: 26
  valence: 8
  core: 18
  charge: 0.0
  file: /home/murakami/Public/gpaw-setups-0.9.20000/Fe.PBE.gz
  cutoffs: 1.06(comp), 2.06(filt), 2.67(core), lmax=2
  valence states:
                energy  radius
    4s(2.00)    -5.291   1.164
    4p(0.00)    -1.326   1.058
    3d(6.00)    -7.505   1.058
    *s          21.920   1.164
    *p          25.885   1.058
    *d          19.706   1.058

  Using partial waves for Fe as LCAO basis

O-setup:
  name: Oxygen
  id: 32ecd46bf208036f09c70b0ec9a88b78
  Z: 8
  valence: 6
  core: 2
  charge: 0.0
  file: /home/murakami/Public/gpaw-setups-0.9.20000/O.PBE.gz
  cutoffs: 0.67(comp), 1.17(filt), 0.83(core), lmax=2
  valence states:
                energy  radius
    2s(2.00)   -23.961   0.688
    2p(4.00)    -9.029   0.598
    *s           3.251   0.688
    *p          18.182   0.598
    *d           0.000   0.619

  Using partial waves for O as LCAO basis

F-setup:
  name: Fluorine
  id: 9cd46ba2a61e170ad72278be75b55cc0
  Z: 9
  valence: 7
  core: 2
  charge: 0.0
  file: /home/murakami/Public/gpaw-setups-0.9.20000/F.PBE.gz
  cutoffs: 0.64(comp), 1.14(filt), 0.74(core), lmax=2
  valence states:
                energy  radius
    2s(2.00)   -29.898   0.635
    2p(5.00)   -11.110   0.635
    *s          -2.687   0.635
    *p          16.102   0.635
    *d           0.000   0.635

  Using partial waves for F as LCAO basis

Reference energy: -648925.267931

Spin-paired calculation

Occupation numbers:
  Fermi-Dirac: width=0.1000 eV

Convergence criteria:
  Maximum total energy change: 0.0005 eV / electron
  Maximum integral of absolute density change: 0.0001 electrons
  Maximum integral of absolute eigenstate change: 4e-08 eV^2
  Maximum number of iterations: 300

Symmetries present (total): 1

  ( 1  0  0)
  ( 0  1  0)
  ( 0  0  1)

1 k-point (Gamma)
1 k-point in the irreducible part of the Brillouin zone
       k-points in crystal coordinates                weights
   0:     0.00000000    0.00000000    0.00000000          1/1

Wave functions: Uniform real-space grid
  Kinetic energy operator: 8*3+1=25 point O(h^6) finite-difference Laplacian
  ScaLapack parameters: grid=1x1, blocksize=None 

Eigensolver
   Davidson(niter=1, smin=None, normalize=True) 

Densities:
  Coarse grid: 48*28*76 grid
  Fine grid: 96*56*152 grid
  Total Charge: 0.000000 

Density mixing:
  Method: separate
  Backend: pulay
  Linear mixing parameter: 0.05
  Mixing with 5 old densities
  Damping of long wave oscillations: 50 

Hamiltonian:
  XC and Coulomb potentials evaluated on a 96*56*152 grid
  Using the PBE Exchange-Correlation functional
  Interpolation: tri-quintic (5. degree polynomial)
  Poisson solver: Jacobi solver with 4 multi-grid levels
    Coarsest grid: 12 x 7 x 19 points
    Stencil: 8*3+1=25 point O(h^6) finite-difference Laplacian
    Max iterations: 1000
    Tolerance: 2.000000e-10 

Memory estimate:
  Process memory now: 1099.94 MiB
  Calculator: 625.89 MiB
    Density: 116.20 MiB
      Arrays: 20.26 MiB
      Localized functions: 88.15 MiB
      Mixer: 7.79 MiB
    Hamiltonian: 35.03 MiB
      Arrays: 13.25 MiB
      XC: 0.00 MiB
      Poisson: 15.10 MiB
      vbar: 6.69 MiB
    Wavefunctions: 474.65 MiB
      Arrays psit_nG: 224.44 MiB
      Eigensolver: 234.67 MiB
      Projections: 1.66 MiB
      Projectors: 13.88 MiB

Total number of cores used: 1

Number of atoms: 52
Number of atomic orbitals: 288
Number of bands in calculation: 288
Bands to converge: occupied states only
Number of valence electrons: 376

... initialized

Initializing position-dependent things.

Density initialized from atomic densities
Creating initial wave functions:
  288 bands from LCAO basis set

                                           
                                           
                                           
                                           
                          Fe               
              F       F      O             
             Fe                            
               O        F       F          
                            Fe             
         F       F        F                
               Fe                          
            FFe    F   F   F F             
                       Fe                  
         F     F        F                  
             Fe  O          Fe             
               Fe Fe      F     F          
            F          Fe  O               
                   F  F     Fe             
              F           Fe F             
         F     F        F                  
             Fe                            
          F     F Fe     F                 
            F                              
                    F     F Fe             
                                           
                                           
                                           
                                           
                                           

Positions:
   0 Fe     1.542848    2.591830    2.677597    ( 0.0000,  0.0000,  0.0000)
   1 Fe     1.542848    2.763457   10.155423    ( 0.0000,  0.0000,  0.0000)
   2 Fe     6.243444    5.269474    2.544827    ( 0.0000,  0.0000,  0.0000)
   3 Fe     6.243444    0.085813   10.113358    ( 0.0000,  0.0000,  0.0000)
   4 Fe     1.648330    2.532258   14.492306    ( 0.0000,  0.0000,  0.0000)
   5 Fe     1.648330    2.823029    7.059751    ( 0.0000,  0.0000,  0.0000)
   6 Fe     6.348925    5.209902   14.495512    ( 0.0000,  0.0000,  0.0000)
   7 Fe     6.348925    0.145385    7.017686    ( 0.0000,  0.0000,  0.0000)
   8 Fe     3.117708    0.157520   12.271643    ( 0.0000,  0.0000,  0.0000)
   9 Fe     3.117708    5.197767    4.793817    ( 0.0000,  0.0000,  0.0000)
  10 Fe     7.818303    2.835164   12.229578    ( 0.0000,  0.0000,  0.0000)
  11 Fe     7.804643    2.520123    4.751875    ( 0.0000,  0.0000,  0.0000)
  12 Fe     3.136416    0.023135    7.705724    ( 0.0000,  0.0000,  0.0000)
  13 Fe     3.136416    5.332152    0.227899    ( 0.0000,  0.0000,  0.0000)
  14 Fe     7.837011    2.729488    7.663660    ( 0.0000,  0.0000,  0.0000)
  15 Fe     7.837011    2.654509    0.185834    ( 0.0000,  0.0000,  0.0000)
  16 O      2.907450    1.432047   13.814659    ( 0.0000,  0.0000,  0.0000)
  17 O      2.907450    3.923240    6.336834    ( 0.0000,  0.0000,  0.0000)
  18 O      7.608045    4.109690   13.772595    ( 0.0000,  0.0000,  0.0000)
  19 O      7.608045    1.245597    6.294769    ( 0.0000,  0.0000,  0.0000)
  20 F      0.036298    1.964667    3.648091    ( 0.0000,  0.0000,  0.0000)
  21 F      0.036298    3.348243   11.125917    ( 0.0000,  0.0000,  0.0000)
  22 F      4.736893    4.610940    3.606027    ( 0.0000,  0.0000,  0.0000)
  23 F      4.736893    0.702389   11.083852    ( 0.0000,  0.0000,  0.0000)
  24 F      0.243622    2.117357    8.659520    ( 0.0000,  0.0000,  0.0000)
  25 F      0.243622    3.192827    1.181694    ( 0.0000,  0.0000,  0.0000)
  26 F      4.944218    4.795001    8.617455    ( 0.0000,  0.0000,  0.0000)
  27 F      4.944218    0.560286    1.139630    ( 0.0000,  0.0000,  0.0000)
  28 F      1.655719    1.146942    1.234055    ( 0.0000,  0.0000,  0.0000)
  29 F      1.655719    4.208345    8.711881    ( 0.0000,  0.0000,  0.0000)
  30 F      6.356314    3.824585    1.191991    ( 0.0000,  0.0000,  0.0000)
  31 F      6.356314    1.530702    8.598268    ( 0.0000,  0.0000,  0.0000)
  32 F      1.706072    1.089506   11.043749    ( 0.0000,  0.0000,  0.0000)
  33 F      1.612756    4.265781    3.566758    ( 0.0000,  0.0000,  0.0000)
  34 F      6.406667    3.767150   11.001684    ( 0.0000,  0.0000,  0.0000)
  35 F      6.406667    1.588137    3.589858    ( 0.0000,  0.0000,  0.0000)
  36 F      1.776853    1.081018    6.320255    ( 0.0000,  0.0000,  0.0000)
  37 F      1.776853    4.274269   13.798081    ( 0.0000,  0.0000,  0.0000)
  38 F      6.477449    3.747624    6.278191    ( 0.0000,  0.0000,  0.0000)
  39 F      6.524455    1.596625   13.755596    ( 0.0000,  0.0000,  0.0000)
  40 F      2.759033    1.857578    8.623789    ( 0.0000,  0.0000,  0.0000)
  41 F      2.759033    3.497709    1.145964    ( 0.0000,  0.0000,  0.0000)
  42 F      7.459629    4.535221    8.581725    ( 0.0000,  0.0000,  0.0000)
  43 F      7.459629    0.820066    1.008587    ( 0.0000,  0.0000,  0.0000)
  44 F      2.849557    1.636635    3.683786    ( 0.0000,  0.0000,  0.0000)
  45 F      2.849557    3.718652   11.161611    ( 0.0000,  0.0000,  0.0000)
  46 F      7.550153    4.314278    3.495739    ( 0.0000,  0.0000,  0.0000)
  47 F      7.550153    1.041009   11.119547    ( 0.0000,  0.0000,  0.0000)
  48 F      4.613296    0.721079    6.219990    ( 0.0000,  0.0000,  0.0000)
  49 F      4.613296    4.634208   13.649090    ( 0.0000,  0.0000,  0.0000)
  50 F      9.313892    3.398722    6.242220    ( 0.0000,  0.0000,  0.0000)
  51 F      9.313892    1.956565   13.720045    ( 0.0000,  0.0000,  0.0000)

Unit cell:
           periodic     x           y           z      points  spacing
  1. axis:    yes    9.401191    0.000000   -0.084129    48     0.1959
  2. axis:    yes    0.000000    5.355287    0.000000    28     0.1913
  3. axis:    yes    0.000000    0.000000   14.955651    76     0.1968

  Lengths:   9.401567   5.355287  14.955651
  Angles:   90.000000  90.512712  90.000000

Effective grid spacing dv^(1/3) = 0.1946

                     log10-error:    total        iterations:
           time      wfs    density  energy       fermi  poisson
iter:   1  12:00:41  +1.49   +inf  -311.559566    3      18     
iter:   2  12:01:08  +0.30   +inf  -313.127588    3             
iter:   3  12:01:36  -0.29   +inf  -313.556001    2             
iter:   4  12:02:10  -0.46  -1.13  -310.697349    3      18     
iter:   5  12:02:44  -0.45  -1.16  -324.491395    3      28     
iter:   6  12:03:20  -0.12  -1.13  -314.944507    36     32     
iter:   7  12:03:56  -0.31  -1.29  -307.862884    3      32     
iter:   8  12:04:30  -0.71  -1.34  -305.204121    3      31     
iter:   9  12:05:04  -0.99  -1.36  -303.686840    3      29     
iter:  10  12:05:38  -1.29  -1.39  -301.261635    3      27     
iter:  11  12:06:12  -1.65  -1.43  -301.180685    3      26     
iter:  12  12:06:46  -1.59  -1.45  -301.438756    4      27     
iter:  13  12:07:26  -1.70  -1.43  -301.773565    3      25     
iter:  14  12:08:08  -1.60  -1.44  -303.764497    3      29     
iter:  15  12:08:50  -1.45  -1.42  -303.666700    3      30     
iter:  16  12:09:25  -1.23  -1.44  -308.977790    3      31     
iter:  17  12:09:59  -1.33  -1.37  -301.899991    3      29     
iter:  18  12:10:35  -1.52  -1.49  -302.913401    3      28     
iter:  19  12:11:09  -1.79  -1.45  -299.945792    3      26     
iter:  20  12:11:42  -2.04  -1.55  -301.418562    3      23     
iter:  21  12:12:17  -1.65  -1.51  -304.214426    3      30     
iter:  22  12:12:52  -1.55  -1.45  -300.339443    4      29     
iter:  23  12:13:26  -1.94  -1.56  -300.917524    4      16     
iter:  24  12:14:01  -1.54  -1.57  -303.194028    4      25     
iter:  25  12:14:34  -1.30  -1.54  -304.008608    4      28     
iter:  26  12:15:08  -1.56  -1.50  -301.372774    3      24     
iter:  27  12:15:42  -1.59  -1.59  -302.318445    4      24     
iter:  28  12:16:16  -1.23  -1.61  -306.360104    2      30     
iter:  29  12:16:52  -1.41  -1.49  -302.845005    3      30     
iter:  30  12:17:27  -1.46  -1.58  -301.382090    3      26     
iter:  31  12:18:08  -1.82  -1.64  -300.170855    3      21     
iter:  32  12:18:48  -2.47  -1.72  -299.689630    3      17     
iter:  33  12:19:22  -1.92  -1.77  -302.140466    3      25     
iter:  34  12:19:56  -1.74  -1.63  -300.986003    3      28     
iter:  35  12:20:30  -1.87  -1.67  -301.240051    3      27     
iter:  36  12:21:04  -1.87  -1.68  -300.233923    3      26     
iter:  37  12:21:37  -2.04  -1.75  -300.490740    3      23     
iter:  38  12:22:11  -2.10  -1.75  -299.621600    3      19     
iter:  39  12:22:44  -2.68  -1.82  -299.997437    3      20     
iter:  40  12:23:19  -2.20  -1.78  -300.952953    3      26     
iter:  41  12:23:54  -1.89  -1.70  -301.278007    3      27     
iter:  42  12:24:28  -1.87  -1.71  -300.593282    3      27     
iter:  43  12:25:01  -1.96  -1.76  -301.099163    3      26     
iter:  44  12:25:35  -1.91  -1.74  -299.778798    3      24     
iter:  45  12:26:07  -2.64  -1.85  -299.687250    3      15     
iter:  46  12:26:41  -2.22  -1.88  -301.990417    3      26     
iter:  47  12:27:15  -1.88  -1.67  -300.909313    3      28     
iter:  48  12:27:55  -1.94  -1.76  -300.501845    3      26     
iter:  49  12:28:35  -2.12  -1.80  -300.499528    3      25     
iter:  50  12:29:08  -2.18  -1.79  -299.891219    3      23     
iter:  51  12:29:42  -2.77  -1.88  -299.633903    3      13     
iter:  52  12:30:15  -2.24  -1.93  -302.231911    3      26     
iter:  53  12:30:49  -1.92  -1.66  -300.450183    3      28     
iter:  54  12:31:23  -2.17  -1.83  -299.911704    3      23     
iter:  55  12:31:58  -2.39  -1.90  -300.159863    3      22     
iter:  56  12:32:32  -2.24  -1.87  -300.337095    3      24     
iter:  57  12:33:05  -2.29  -1.88  -299.739687    3      21     
iter:  58  12:33:41  -2.23  -1.96  -300.868239    3      24     
iter:  59  12:34:15  -2.08  -1.82  -300.210255    3      26     
iter:  60  12:34:49  -2.23  -1.89  -299.950303    3      23     
iter:  61  12:35:22  -2.43  -1.96  -299.803612    3      21     
iter:  62  12:35:55  -2.25  -1.99  -301.109606    3      25     
iter:  63  12:36:29  -2.21  -1.80  -299.686424    3      26     
iter:  64  12:37:02  -2.53  -2.03  -299.924688    3      20     
iter:  65  12:37:42  -2.43  -1.99  -300.106554    3      23     
iter:  66  12:38:23  -2.46  -1.94  -299.644638    3      20     
iter:  67  12:39:00  -2.98  -2.07  -299.722677    3      15     
iter:  68  12:39:33  -2.47  -2.05  -300.233283    3      21     
iter:  69  12:40:09  -1.90  -2.02  -301.776291    3      27     
iter:  70  12:40:43  -2.04  -1.75  -300.014577    3      27     
iter:  71  12:41:18  -2.26  -2.03  -300.567799    3      24     
iter:  72  12:41:52  -2.23  -1.94  -299.895669    3      24     
iter:  73  12:42:25  -2.73  -2.09  -299.630970    3      18     
iter:  74  12:42:58  -2.76  -2.23  -299.797109    3      13     
iter:  75  12:43:33  -2.65  -2.17  -299.706888    2      19     
iter:  76  12:44:06  -2.63  -2.22  -300.105080    3      20     
iter:  77  12:44:39  -2.33  -2.09  -300.639759    3      24     
iter:  78  12:45:13  -2.33  -1.91  -299.878491    3      25     
iter:  79  12:45:46  -2.85  -2.15  -299.598894    3      20     
iter:  80  12:46:18  -3.33  -2.35  -299.622618    3      14     
iter:  81  12:46:51  -3.10  -2.32  -299.660182    3      17     
iter:  82  12:47:29  -3.23  -2.28  -299.630252    3      13     
iter:  83  12:48:08  -2.82  -2.32  -300.065300    3      22     
iter:  84  12:48:41  -2.66  -2.06  -299.710819    3      23     
iter:  85  12:49:14  -3.22  -2.25  -299.589249    2      18     
iter:  86  12:49:46  -3.71  -2.41  -299.593589    3      9      
iter:  87  12:50:18  -3.61  -2.40  -299.599299    2      8      
iter:  88  12:50:54  -3.59  -2.42  -299.600402    2      11     
iter:  89  12:51:27  -2.95  -2.41  -299.826505    3      19     
iter:  90  12:52:02  -2.78  -2.22  -299.759134    3      21     
iter:  91  12:52:36  -2.90  -2.28  -299.690077    3      20     
iter:  92  12:53:08  -3.02  -2.31  -299.641315    2      11     
iter:  93  12:53:41  -3.35  -2.40  -299.606828    3      13     
iter:  94  12:54:13  -3.72  -2.48  -299.581383    2      12     
iter:  95  12:54:44  -4.11  -2.56  -299.585851    3      6      
iter:  96  12:55:17  -3.63  -2.58  -299.598093    2      9      
iter:  97  12:55:50  -3.16  -2.56  -299.830643    3      20     
iter:  98  12:56:29  -2.90  -2.27  -299.670171    2      19     
iter:  99  12:57:02  -3.18  -2.42  -299.616601    3      14     
iter: 100  12:57:36  -3.07  -2.67  -299.672079    3      18     
iter: 101  12:58:09  -3.19  -2.40  -299.612466    3      19     
iter: 102  12:58:41  -3.55  -2.64  -299.581353    2      14     
iter: 103  12:59:13  -4.39  -2.84  -299.578696    2      6      
iter: 104  12:59:45  -4.47  -2.88  -299.580749    2      8      
iter: 105  13:00:21  -3.94  -2.89  -299.603675    2      9      
iter: 106  13:00:55  -3.73  -2.72  -299.595738    2      15     
iter: 107  13:01:31  -3.99  -2.74  -299.584727    2      13     
iter: 108  13:02:07  -4.15  -2.89  -299.582964    2      12     
iter: 109  13:02:39  -4.24  -2.85  -299.579641    2      7      
iter: 110  13:03:10  -4.79  -2.95  -299.578292    2      5      
iter: 111  13:03:44  -4.83  -3.01  -299.580461    2      6      
iter: 112  13:04:16  -4.59  -2.98  -299.581287    2      8      
iter: 113  13:04:49  -4.67  -2.98  -299.579708    2      9      
iter: 114  13:05:21  -4.36  -3.00  -299.589360    2      12     
iter: 115  13:05:53  -4.00  -2.87  -299.585722    2      9      
iter: 116  13:06:25  -4.20  -2.92  -299.580477    2      9      
iter: 117  13:06:57  -4.72  -3.04  -299.580888    2      8      
iter: 118  13:07:29  -4.74  -3.01  -299.580407    2      6      
iter: 119  13:08:02  -4.83  -3.07  -299.580401    2      9      
iter: 120  13:08:35  -4.55  -3.08  -299.585195    2      9      
iter: 121  13:09:08  -4.35  -3.02  -299.582446    2      9      
iter: 122  13:09:42  -4.21  -3.12  -299.587729    2      12     
iter: 123  13:10:15  -4.14  -2.90  -299.583055    2      12     
iter: 124  13:10:47  -4.32  -3.08  -299.583197    2      7      
iter: 125  13:11:20  -4.57  -3.13  -299.580129    2      10     
iter: 126  13:11:53  -4.81  -3.17  -299.582079    2      7      
iter: 127  13:12:25  -4.86  -3.15  -299.579748    2      6      
iter: 128  13:12:58  -4.97  -3.27  -299.580920    2      6      
iter: 129  13:13:30  -4.83  -3.23  -299.579445    2      5      
iter: 130  13:14:03  -4.77  -3.27  -299.581534    2      6      
iter: 131  13:14:36  -4.74  -3.22  -299.581921    2      9      
iter: 132  13:15:09  -5.00  -3.16  -299.579630    2      8      
iter: 133  13:15:41  -5.23  -3.37  -299.579941    2      6      
iter: 134  13:16:14  -5.20  -3.27  -299.579245    2      4      
iter: 135  13:16:46  -5.78  -3.41  -299.579578    2      4      
iter: 136  13:17:19  -5.50  -3.39  -299.580074    2      4      
iter: 137  13:17:51  -5.28  -3.40  -299.580051    2      4      
iter: 138  13:18:24  -5.18  -3.35  -299.579459    2      5      
iter: 139  13:18:56  -5.43  -3.39  -299.579543    2      5      
iter: 140  13:19:28  -5.63  -3.39  -299.579536    2      4      
iter: 141  13:20:00  -5.79  -3.45  -299.579442    2      4      
iter: 142  13:20:32  -5.79  -3.47  -299.579293    1      3      
iter: 143  13:21:04  -5.68  -3.48  -299.579315    2      4      
iter: 144  13:21:36  -5.20  -3.49  -299.580418    2      4      
iter: 145  13:22:09  -5.25  -3.40  -299.580039    2      4      
iter: 146  13:22:41  -5.40  -3.46  -299.579874    2      5      
iter: 147  13:23:13  -5.34  -3.47  -299.579511    2      4      
iter: 148  13:23:45  -5.78  -3.53  -299.579552    2      3      
iter: 149  13:24:17  -6.18  -3.57  -299.579572    2      3      
iter: 150  13:24:50  -5.66  -3.60  -299.579574    1      4      
iter: 151  13:25:22  -5.53  -3.51  -299.579440    2      4      
iter: 152  13:25:54  -5.70  -3.57  -299.579710    2      4      
iter: 153  13:26:27  -5.15  -3.64  -299.580453    2      5      
iter: 154  13:26:59  -5.18  -3.44  -299.579750    2      5      
iter: 155  13:27:32  -5.46  -3.54  -299.579569    2      4      
iter: 156  13:28:04  -5.72  -3.63  -299.579427    2      4      
iter: 157  13:28:36  -5.56  -3.73  -299.579906    2      4      
iter: 158  13:29:07  -5.46  -3.66  -299.580415    2      4      
iter: 159  13:29:38  -5.50  -3.58  -299.579551    2      3      
iter: 160  13:30:09  -6.02  -3.86  -299.579768    2      3      
iter: 161  13:30:40  -5.94  -3.80  -299.579608    2      3      
iter: 162  13:31:13  -6.30  -3.85  -299.579515    2      3      
iter: 163  13:31:45  -5.97  -3.98  -299.579705    2      4      
iter: 164  13:32:16  -5.58  -3.92  -299.580000    2      3      
iter: 165  13:32:47  -5.71  -3.88  -299.579482    2      4      
iter: 166  13:33:20  -6.18  -3.92  -299.579543    2      3      
iter: 167  13:33:52  -6.18  -4.07  -299.579751    2      4      
iter: 168  13:34:23  -6.07  -3.90  -299.579646    2      3      
iter: 169  13:34:54  -6.24  -4.18  -299.579670    2      3      
iter: 170  13:35:26  -6.11  -3.98  -299.579666    2      3      
iter: 171  13:35:56  -6.55  -4.07  -299.579487    2      2      
iter: 172  13:36:29  -7.09  -4.17  -299.579564    2      2      
iter: 173  13:37:02  -7.17  -4.25  -299.579641    2      2      
iter: 174  13:37:40  -6.64  -4.23  -299.579625    2      3      
iter: 175  13:38:18  -6.62  -4.12  -299.579617    1      2      
iter: 176  13:38:55  -7.01  -4.25  -299.579601    2      2      
iter: 177  13:39:26  -7.29  -4.28  -299.579586    2      2      
iter: 178  13:39:58  -6.98  -4.36  -299.579642    2      3      
iter: 179  13:40:29  -6.69  -4.25  -299.579615    2      2      
iter: 180  13:41:00  -7.17  -4.29  -299.579598    2      2      
iter: 181  13:41:32  -7.85  -4.40  -299.579537    1      1      

Converged after 181 iterations.

Dipole moment: (-28.233726, -6.962503, 2.166101) |e|*Ang

Energy contributions relative to reference atoms: (reference = -648925.267931)

Kinetic:       +209.883180
Potential:     -242.200763
External:        +0.000000
XC:            -279.676904
Entropy (-ST):   -2.832694
Local:          +13.831297
--------------------------
Free energy:   -300.995884
Extrapolated:  -299.579537

Fermi level: 1.58737

 Band  Eigenvalues  Occupancy
    0    -22.38558    2.00000
    1    -22.24583    2.00000
    2    -22.19718    2.00000
    3    -22.14702    2.00000
    4    -22.09207    2.00000
    5    -22.03205    2.00000
    6    -22.02144    2.00000
    7    -21.95742    2.00000
    8    -21.93923    2.00000
    9    -21.92419    2.00000
   10    -21.86807    2.00000
   11    -21.86012    2.00000
   12    -21.85352    2.00000
   13    -21.73972    2.00000
   14    -21.71517    2.00000
   15    -21.63940    2.00000
   16    -21.54863    2.00000
   17    -21.54593    2.00000
   18    -21.50719    2.00000
   19    -21.46170    2.00000
   20    -21.45297    2.00000
   21    -21.41017    2.00000
   22    -21.35462    2.00000
   23    -21.33597    2.00000
   24    -21.29103    2.00000
   25    -21.19913    2.00000
   26    -21.17131    2.00000
   27    -21.14417    2.00000
   28    -21.11834    2.00000
   29    -21.09384    2.00000
   30    -20.99854    2.00000
   31    -20.95357    2.00000
   32    -17.03722    2.00000
   33    -16.95110    2.00000
   34    -16.95024    2.00000
   35    -16.88189    2.00000
   36     -5.51200    2.00000
   37     -5.41307    2.00000
   38     -5.32488    2.00000
   39     -5.22139    2.00000
   40     -5.21194    2.00000
   41     -5.17967    2.00000
   42     -5.14689    2.00000
   43     -5.10047    2.00000
   44     -4.91563    2.00000
   45     -4.85278    2.00000
   46     -4.80334    2.00000
   47     -4.70915    2.00000
   48     -4.65584    2.00000
   49     -4.56877    2.00000
   50     -4.56363    2.00000
   51     -4.52225    2.00000
   52     -4.51980    2.00000
   53     -4.49393    2.00000
   54     -4.48960    2.00000
   55     -4.45266    2.00000
   56     -4.41275    2.00000
   57     -4.38013    2.00000
   58     -4.34949    2.00000
   59     -4.34060    2.00000
   60     -4.32694    2.00000
   61     -4.27077    2.00000
   62     -4.26282    2.00000
   63     -4.21252    2.00000
   64     -4.18376    2.00000
   65     -4.16834    2.00000
   66     -4.15090    2.00000
   67     -4.10404    2.00000
   68     -4.09473    2.00000
   69     -4.06517    2.00000
   70     -4.05275    2.00000
   71     -4.04462    2.00000
   72     -4.01270    2.00000
   73     -3.99656    2.00000
   74     -3.98582    2.00000
   75     -3.96874    2.00000
   76     -3.94360    2.00000
   77     -3.93781    2.00000
   78     -3.88722    2.00000
   79     -3.85490    2.00000
   80     -3.79788    2.00000
   81     -3.77723    2.00000
   82     -3.70429    2.00000
   83     -3.65572    2.00000
   84     -3.59570    2.00000
   85     -3.54304    2.00000
   86     -3.53347    2.00000
   87     -3.47435    2.00000
   88     -3.45278    2.00000
   89     -3.42336    2.00000
   90     -3.36813    2.00000
   91     -3.35014    2.00000
   92     -3.30801    2.00000
   93     -3.26018    2.00000
   94     -3.22927    2.00000
   95     -3.20441    2.00000
   96     -3.12949    2.00000
   97     -3.05170    2.00000
   98     -3.03283    2.00000
   99     -3.02091    2.00000
  100     -3.00819    2.00000
  101     -2.98336    2.00000
  102     -2.95806    2.00000
  103     -2.91595    2.00000
  104     -2.88420    2.00000
  105     -2.86909    2.00000
  106     -2.85591    2.00000
  107     -2.81679    2.00000
  108     -2.80796    2.00000
  109     -2.75835    2.00000
  110     -2.74901    2.00000
  111     -2.72519    2.00000
  112     -2.67847    2.00000
  113     -2.67055    2.00000
  114     -2.65662    2.00000
  115     -2.57810    2.00000
  116     -2.56146    2.00000
  117     -2.52228    2.00000
  118     -2.49189    2.00000
  119     -2.47609    2.00000
  120     -2.45180    2.00000
  121     -2.44210    2.00000
  122     -2.39251    2.00000
  123     -2.38407    2.00000
  124     -2.36295    2.00000
  125     -2.32575    2.00000
  126     -2.27581    2.00000
  127     -2.24772    2.00000
  128     -2.22421    2.00000
  129     -2.19937    2.00000
  130     -2.16601    2.00000
  131     -2.15637    2.00000
  132     -2.13088    2.00000
  133     -2.09762    2.00000
  134     -2.04510    2.00000
  135     -2.01296    2.00000
  136     -1.97967    2.00000
  137     -1.94023    2.00000
  138     -1.89838    2.00000
  139     -1.86013    2.00000
  140     -1.84804    2.00000
  141     -1.80096    2.00000
  142     -1.73289    2.00000
  143     -1.66342    2.00000
  144      0.82762    1.99900
  145      0.83919    1.99887
  146      0.84729    1.99878
  147      0.89234    1.99809
  148      0.90453    1.99784
  149      0.91804    1.99752
  150      0.96580    1.99601
  151      0.97297    1.99572
  152      1.00586    1.99405
  153      1.01475    1.99350
  154      1.03683    1.99190
  155      1.04117    1.99155
  156      1.04803    1.99095
  157      1.06153    1.98965
  158      1.08337    1.98714
  159      1.09650    1.98534
  160      1.13051    1.97947
  161      1.15112    1.97483
  162      1.16735    1.97046
  163      1.17776    1.96727
  164      1.20510    1.95720
  165      1.21110    1.95461
  166      1.21586    1.95246
  167      1.22022    1.95039
  168      1.23037    1.94523
  169      1.24552    1.93656
  170      1.25324    1.93164
  171      1.26990    1.91974
  172      1.27420    1.91636
  173      1.27755    1.91364
  174      1.29489    1.89812
  175      1.30405    1.88889
  176      1.32994    1.85838
  177      1.36528    1.80423
  178      1.37843    1.77975
  179      1.39904    1.73599
  180      1.40628    1.71895
  181      1.42232    1.67794
  182      1.45239    1.58819
  183      1.45804    1.56941
  184      1.46782    1.53545
  185      1.49834    1.41791
  186      1.51296    1.35580
  187      1.53317    1.26458
  188      1.58437    1.01502
  189      1.60321    0.92099
  190      1.61504    0.86254
  191      1.67719    0.57886
  192      1.69260    0.51759
  193      1.72444    0.40503
  194      1.73424    0.37429
  195      1.74925    0.33074
  196      1.82781    0.16567
  197      1.84076    0.14704
  198      1.88715    0.09505
  199      1.89438    0.08872
  200      1.92979    0.06310
  201      1.93840    0.05804
  202      1.94659    0.05360
  203      2.01611    0.02711
  204      2.11404    0.01027
  205      2.14819    0.00731
  206      2.22560    0.00338
  207      2.24642    0.00274
  208      2.27406    0.00208
  209      2.44002    0.00040
  210      2.46002    0.00032
  211      2.49528    0.00023
  212      2.51482    0.00019
  213      2.53790    0.00015
  214      2.58904    0.00009
  215      2.71511    0.00003
  216      2.74415    0.00002
  217      2.74967    0.00002
  218      2.82028    0.00001
  219      2.83222    0.00001
  220      2.86612    0.00001
  221      2.92161    0.00000
  222      3.00843    0.00000
  223      3.03592    0.00000
  224      4.91766    0.00000
  225      5.75228    0.00000
  226      6.20759    0.00000
  227      6.81426    0.00000
  228      7.42092    0.00000
  229      7.67170    0.00000
  230      7.74667    0.00000
  231      7.98675    0.00000
  232      8.23962    0.00000
  233      8.46499    0.00000
  234      8.62908    0.00000
  235      8.93699    0.00000
  236      9.85373    0.00000
  237     10.05306    0.00000
  238     10.08372    0.00000
  239     10.15406    0.00000
  240     10.45359    0.00000
  241     10.74984    0.00000
  242     10.83200    0.00000
  243     10.89131    0.00000
  244     10.98701    0.00000
  245     10.99430    0.00000
  246     11.03649    0.00000
  247     11.24216    0.00000
  248     11.31162    0.00000
  249     11.44168    0.00000
  250     11.59415    0.00000
  251     11.67608    0.00000
  252     11.76863    0.00000
  253     11.89967    0.00000
  254     11.91697    0.00000
  255     11.92857    0.00000
  256     12.04754    0.00000
  257     12.05237    0.00000
  258     12.28782    0.00000
  259     12.30930    0.00000
  260     12.33718    0.00000
  261     12.38968    0.00000
  262     12.47773    0.00000
  263     12.50463    0.00000
  264     12.56167    0.00000
  265     12.58053    0.00000
  266     12.64234    0.00000
  267     12.66010    0.00000
  268     12.73868    0.00000
  269     12.76880    0.00000
  270     12.86126    0.00000
  271     13.04388    0.00000
  272     13.05067    0.00000
  273     13.17190    0.00000
  274     13.24659    0.00000
  275     13.27987    0.00000
  276     13.30932    0.00000
  277     13.40741    0.00000
  278     13.47613    0.00000
  279     13.53449    0.00000
  280     13.71525    0.00000
  281     14.01934    0.00000
  282     14.05296    0.00000
  283     14.23411    0.00000
  284     14.38811    0.00000
  285     14.42428    0.00000
  286     14.50218    0.00000
  287     14.55080    0.00000

Timing:                              incl.     excl.
-----------------------------------------------------------
Hamiltonian:                         5.070     0.000   0.0% |
 Atomic:                             2.286     0.005   0.0% |
  XC Correction:                     2.282     2.282   0.0% |
 Calculate atomic Hamiltonians:      0.028     0.028   0.0% |
 Communicate:                        0.000     0.000   0.0% |
 Hartree integrate/restrict:         0.018     0.018   0.0% |
 Initialize Hamiltonian:             0.000     0.000   0.0% |
 Poisson:                            2.094     2.094   0.0% |
 XC 3D grid:                         0.638     0.638   0.0% |
 vbar:                               0.005     0.005   0.0% |
LCAO initialization:                22.037     0.229   0.0% |
 LCAO eigensolver:                   2.096     0.000   0.0% |
  Calculate projections:             0.023     0.023   0.0% |
  DenseAtomicCorrection:             0.022     0.022   0.0% |
  Distribute overlap matrix:         0.000     0.000   0.0% |
  Orbital Layouts:                   0.059     0.059   0.0% |
  Potential matrix:                  1.991     1.991   0.0% |
 LCAO to grid:                      18.542    18.542   0.3% |
 Set positions (LCAO WFS):           1.171     0.000   0.0% |
  Basic WFS set positions:           0.001     0.001   0.0% |
  Basis functions set positions:     0.000     0.000   0.0% |
  TCI: Calculate S, T, P:            1.169     1.169   0.0% |
SCF-cycle:                        6084.663     0.141   0.0% |
 Davidson:                        5208.043   784.165  12.8% |----|
  Apply hamiltonian:               119.403   119.403   2.0% ||
  Subspace diag:                  1529.232     0.036   0.0% |
   calc_h_matrix:                  594.025   472.378   7.7% |--|
    Apply hamiltonian:             121.647   121.647   2.0% ||
   diagonalize:                      3.914     3.914   0.1% |
   rotate_psi:                     931.257   931.257  15.2% |-----|
  calc. matrices:                 1822.908  1703.416  27.9% |----------|
   Apply hamiltonian:              119.492   119.492   2.0% ||
  diagonalize:                      16.911    16.911   0.3% |
  rotate_psi:                      935.425   935.425  15.3% |-----|
 Density:                           18.529     0.005   0.0% |
  Atomic density matrices:           1.078     1.078   0.0% |
  Mix:                               8.742     8.742   0.1% |
  Multipole moments:                 0.208     0.208   0.0% |
  Pseudo density:                    8.497     8.493   0.1% |
   Symmetrize density:               0.004     0.004   0.0% |
 Hamiltonian:                      851.797     0.024   0.0% |
  Atomic:                          411.017     0.864   0.0% |
   XC Correction:                  410.154   410.154   6.7% |--|
  Calculate atomic Hamiltonians:     5.451     5.451   0.1% |
  Communicate:                       0.002     0.002   0.0% |
  Hartree integrate/restrict:        3.095     3.095   0.1% |
  Poisson:                         315.347   315.347   5.2% |-|
  XC 3D grid:                      115.808   115.808   1.9% ||
  vbar:                              1.054     1.054   0.0% |
 Orthonormalize:                     6.152     0.000   0.0% |
  calc_s_matrix:                     1.575     1.575   0.0% |
  inverse-cholesky:                  0.004     0.004   0.0% |
  projections:                       1.960     1.960   0.0% |
  rotate_psi_s:                      2.613     2.613   0.0% |
Set symmetry:                        0.001     0.001   0.0% |
Other:                               1.275     1.275   0.0% |
-----------------------------------------------------------
Total:                                      6113.046 100.0%

Memory usage: 1.07 GiB
Date: Thu Mar 28 13:41:32 2019
