
  ___ ___ ___ _ _ _  
 |   |   |_  | | | | 
 | | | | | . | | | | 
 |__ |  _|___|_____|  1.4.0
 |___|_|             

User:   murakami@tssm1.eng.shizuoka.ac.jp
Date:   Thu Mar 28 06:15:21 2019
Arch:   x86_64
Pid:    31289
Python: 3.6.5
gpaw:   /home/murakami/.local/lib/python3.6/site-packages/gpaw
_gpaw:  /home/murakami/.local/lib/python3.6/site-packages/
        _gpaw.cpython-36m-x86_64-linux-gnu.so
ase:    /home/murakami/.local/lib/python3.6/site-packages/ase (version 3.16.2)
numpy:  /home/murakami/.local/lib/python3.6/site-packages/numpy (version 1.15.2)
scipy:  /home/murakami/.local/lib/python3.6/site-packages/scipy (version 1.1.0)
units:  Angstrom and eV
cores:  1

Input parameters:
  kpts: {size: (1, 1, 1)}
  maxiter: 300
  xc: PBE

System changes: positions, numbers, cell, pbc, initial_charges, initial_magmoms 

Initialize ...

Fe-setup:
  name: Iron
  id: 37abbd8d6c3c35915a9b583b742da910
  Z: 26
  valence: 8
  core: 18
  charge: 0.0
  file: /home/murakami/Public/gpaw-setups-0.9.20000/Fe.PBE.gz
  cutoffs: 1.06(comp), 2.06(filt), 2.67(core), lmax=2
  valence states:
                energy  radius
    4s(2.00)    -5.291   1.164
    4p(0.00)    -1.326   1.058
    3d(6.00)    -7.505   1.058
    *s          21.920   1.164
    *p          25.885   1.058
    *d          19.706   1.058

  Using partial waves for Fe as LCAO basis

O-setup:
  name: Oxygen
  id: 32ecd46bf208036f09c70b0ec9a88b78
  Z: 8
  valence: 6
  core: 2
  charge: 0.0
  file: /home/murakami/Public/gpaw-setups-0.9.20000/O.PBE.gz
  cutoffs: 0.67(comp), 1.17(filt), 0.83(core), lmax=2
  valence states:
                energy  radius
    2s(2.00)   -23.961   0.688
    2p(4.00)    -9.029   0.598
    *s           3.251   0.688
    *p          18.182   0.598
    *d           0.000   0.619

  Using partial waves for O as LCAO basis

F-setup:
  name: Fluorine
  id: 9cd46ba2a61e170ad72278be75b55cc0
  Z: 9
  valence: 7
  core: 2
  charge: 0.0
  file: /home/murakami/Public/gpaw-setups-0.9.20000/F.PBE.gz
  cutoffs: 0.64(comp), 1.14(filt), 0.74(core), lmax=2
  valence states:
                energy  radius
    2s(2.00)   -29.898   0.635
    2p(5.00)   -11.110   0.635
    *s          -2.687   0.635
    *p          16.102   0.635
    *d           0.000   0.635

  Using partial waves for F as LCAO basis

Reference energy: -648925.267931

Spin-paired calculation

Occupation numbers:
  Fermi-Dirac: width=0.1000 eV

Convergence criteria:
  Maximum total energy change: 0.0005 eV / electron
  Maximum integral of absolute density change: 0.0001 electrons
  Maximum integral of absolute eigenstate change: 4e-08 eV^2
  Maximum number of iterations: 300

Symmetries present (total): 1

  ( 1  0  0)
  ( 0  1  0)
  ( 0  0  1)

1 k-point (Gamma)
1 k-point in the irreducible part of the Brillouin zone
       k-points in crystal coordinates                weights
   0:     0.00000000    0.00000000    0.00000000          1/1

Wave functions: Uniform real-space grid
  Kinetic energy operator: 12*3+1=37 point O(h^6) finite-difference Laplacian
  ScaLapack parameters: grid=1x1, blocksize=None 

Eigensolver
   Davidson(niter=1, smin=None, normalize=True) 

Densities:
  Coarse grid: 48*28*76 grid
  Fine grid: 96*56*152 grid
  Total Charge: 0.000000 

Density mixing:
  Method: separate
  Backend: pulay
  Linear mixing parameter: 0.05
  Mixing with 5 old densities
  Damping of long wave oscillations: 50 

Hamiltonian:
  XC and Coulomb potentials evaluated on a 96*56*152 grid
  Using the PBE Exchange-Correlation functional
  Interpolation: tri-quintic (5. degree polynomial)
  Poisson solver: Jacobi solver with 4 multi-grid levels
    Coarsest grid: 12 x 7 x 19 points
    Stencil: 12*3+1=37 point O(h^6) finite-difference Laplacian
    Max iterations: 1000
    Tolerance: 2.000000e-10 

Memory estimate:
  Process memory now: 1099.94 MiB
  Calculator: 624.90 MiB
    Density: 115.40 MiB
      Arrays: 20.26 MiB
      Localized functions: 87.34 MiB
      Mixer: 7.79 MiB
    Hamiltonian: 34.97 MiB
      Arrays: 13.25 MiB
      XC: 0.00 MiB
      Poisson: 15.10 MiB
      vbar: 6.63 MiB
    Wavefunctions: 474.53 MiB
      Arrays psit_nG: 224.44 MiB
      Eigensolver: 234.67 MiB
      Projections: 1.66 MiB
      Projectors: 13.76 MiB

Total number of cores used: 1

Number of atoms: 52
Number of atomic orbitals: 288
Number of bands in calculation: 288
Bands to converge: occupied states only
Number of valence electrons: 376

... initialized

Initializing position-dependent things.

Density initialized from atomic densities
Creating initial wave functions:
  288 bands from LCAO basis set

                                           
                                           
                                           
                                           
                          Fe               
              F       F                    
             Fe              O             
               O        F       F          
                            Fe             
         F       F       F                 
               Fe                          
            FFe    F       F               
              F        F     F             
         F     F       Fe                  
                        F   Fe             
             Fe  O        F                
               Fe Fe            F          
            F      F   Fe  O               
              F       F     Fe             
                          Fe               
         F   FeF        F                  
                         F                 
          F     F Fe                       
            F                              
                    F     F Fe             
                                           
                                           
                                           
                                           
                                           

Positions:
   0 Fe     1.542848    2.602727    2.664725    ( 0.0000,  0.0000,  0.0000)
   1 Fe     1.542848    2.775935   10.142550    ( 0.0000,  0.0000,  0.0000)
   2 Fe     6.243444    5.265474    2.564941    ( 0.0000,  0.0000,  0.0000)
   3 Fe     6.243444    0.034041   10.061267    ( 0.0000,  0.0000,  0.0000)
   4 Fe     1.624592    2.541918   14.524234    ( 0.0000,  0.0000,  0.0000)
   5 Fe     1.648330    2.835168    7.045998    ( 0.0000,  0.0000,  0.0000)
   6 Fe     6.348925    5.204464   14.442540    ( 0.0000,  0.0000,  0.0000)
   7 Fe     6.348925    0.093275    6.964715    ( 0.0000,  0.0000,  0.0000)
   8 Fe     3.183864    0.132168   12.244486    ( 0.0000,  0.0000,  0.0000)
   9 Fe     3.117708    5.219420    4.767805    ( 0.0000,  0.0000,  0.0000)
  10 Fe     7.818303    2.795471   12.164347    ( 0.0000,  0.0000,  0.0000)
  11 Fe     7.818303    2.477527    4.686521    ( 0.0000,  0.0000,  0.0000)
  12 Fe     3.136416   -0.003057    7.679556    ( 0.0000,  0.0000,  0.0000)
  13 Fe     3.136416    5.354887    0.201731    ( 0.0000,  0.0000,  0.0000)
  14 Fe     7.837011    2.659690    7.598273    ( 0.0000,  0.0000,  0.0000)
  15 Fe     7.837011    2.612994    0.120447    ( 0.0000,  0.0000,  0.0000)
  16 O      2.907450    1.420767   13.790401    ( 0.0000,  0.0000,  0.0000)
  17 O      2.907450    3.934919    6.312576    ( 0.0000,  0.0000,  0.0000)
  18 O      7.608045    4.049794   13.709118    ( 0.0000,  0.0000,  0.0000)
  19 O      7.608045    1.147891    6.231292    ( 0.0000,  0.0000,  0.0000)
  20 F      0.036298    1.993153    3.641043    ( 0.0000,  0.0000,  0.0000)
  21 F      0.036298    3.410876   11.015675    ( 0.0000,  0.0000,  0.0000)
  22 F      4.736893    4.683976    3.566505    ( 0.0000,  0.0000,  0.0000)
  23 F      4.736893    0.668983   11.044330    ( 0.0000,  0.0000,  0.0000)
  24 F      0.243622    2.134819    8.657487    ( 0.0000,  0.0000,  0.0000)
  25 F      0.243622    3.265719    1.179662    ( 0.0000,  0.0000,  0.0000)
  26 F      4.944218    4.797566    8.576204    ( 0.0000,  0.0000,  0.0000)
  27 F      4.944218    0.523825    1.211473    ( 0.0000,  0.0000,  0.0000)
  28 F      1.664302    1.143500    1.220092    ( 0.0000,  0.0000,  0.0000)
  29 F      1.655719    4.233189    8.698066    ( 0.0000,  0.0000,  0.0000)
  30 F      6.356314    3.852604    1.138957    ( 0.0000,  0.0000,  0.0000)
  31 F      6.356314    1.491296    8.616783    ( 0.0000,  0.0000,  0.0000)
  32 F      1.706072    1.085184   11.029514    ( 0.0000,  0.0000,  0.0000)
  33 F      1.706072    4.290730    3.551689    ( 0.0000,  0.0000,  0.0000)
  34 F      6.406667    3.747930   10.948231    ( 0.0000,  0.0000,  0.0000)
  35 F      6.406667    1.548836    3.470405    ( 0.0000,  0.0000,  0.0000)
  36 F      1.776853    1.076022    6.305430    ( 0.0000,  0.0000,  0.0000)
  37 F      1.776853    4.298700   13.783256    ( 0.0000,  0.0000,  0.0000)
  38 F      6.507758    3.738513    6.223623    ( 0.0000,  0.0000,  0.0000)
  39 F      6.477449    1.556807   13.657734    ( 0.0000,  0.0000,  0.0000)
  40 F      2.759033    1.851469    8.600769    ( 0.0000,  0.0000,  0.0000)
  41 F      2.708276    3.507143    1.123822    ( 0.0000,  0.0000,  0.0000)
  42 F      7.459629    4.479042    8.519486    ( 0.0000,  0.0000,  0.0000)
  43 F      7.459629    0.782906    1.041660    ( 0.0000,  0.0000,  0.0000)
  44 F      2.849557    1.627728    3.623309    ( 0.0000,  0.0000,  0.0000)
  45 F      2.849557    3.728933   11.137836    ( 0.0000,  0.0000,  0.0000)
  46 F      7.550153    4.290474    3.674683    ( 0.0000,  0.0000,  0.0000)
  47 F      7.550153    0.987039   11.056553    ( 0.0000,  0.0000,  0.0000)
  48 F      4.530396    0.665025    6.313795    ( 0.0000,  0.0000,  0.0000)
  49 F      4.613296    4.638077   13.723619    ( 0.0000,  0.0000,  0.0000)
  50 F      9.313892    3.351632    6.164510    ( 0.0000,  0.0000,  0.0000)
  51 F      9.316439    1.892568   13.642291    ( 0.0000,  0.0000,  0.0000)

Unit cell:
           periodic     x           y           z      points  spacing
  1. axis:    yes    9.401191   -0.079147   -0.162567    48     0.1959
  2. axis:    yes    0.000000    5.404640    0.000000    28     0.1930
  3. axis:    yes    0.000000    0.000000   14.955651    76     0.1968

  Lengths:   9.402930   5.404640  14.955651
  Angles:   90.000000  90.990635  90.482280

Effective grid spacing dv^(1/3) = 0.1952

                     log10-error:    total        iterations:
           time      wfs    density  energy       fermi  poisson
iter:   1  06:16:24  +1.48   +inf  -311.880025    3      18     
iter:   2  06:16:52  +0.29   +inf  -313.426003    3             
iter:   3  06:17:21  -0.30   +inf  -313.846625    2             
iter:   4  06:17:55  -0.47  -1.13  -311.236398    3      17     
iter:   5  06:18:33  -0.45  -1.15  -325.934545    3      29     
iter:   6  06:19:14  -0.13  -1.11  -361.675475    3      36     
iter:   7  06:19:56  -0.25  -1.12  -315.813870    3      36     
iter:   8  06:20:33  -0.40  -1.29  -307.049935    4      29     
iter:   9  06:21:10  -0.75  -1.35  -313.214502    37     32     
iter:  10  06:21:48  -0.86  -1.27  -301.828521    4      31     
iter:  11  06:22:23  -1.52  -1.41  -301.483687    3      21     
iter:  12  06:23:03  -1.49  -1.43  -307.982529    4      30     
iter:  13  06:23:41  -1.34  -1.33  -302.565583    4      31     
iter:  14  06:24:21  -1.56  -1.41  -301.607294    3      24     
iter:  15  06:25:00  -1.54  -1.45  -300.936553    4      24     
iter:  16  06:25:36  -1.30  -1.50  -308.529206    3      29     
iter:  17  06:26:14  -1.26  -1.36  -300.987589    4      28     
iter:  18  06:26:52  -1.62  -1.49  -300.946018    4      22     
iter:  19  06:27:29  -1.27  -1.54  -313.212469    3      31     
iter:  20  06:28:05  -1.27  -1.33  -304.171779    3      30     
iter:  21  06:28:41  -1.54  -1.48  -300.843263    3      26     
iter:  22  06:29:17  -1.86  -1.57  -300.768516    4      23     
iter:  23  06:29:53  -1.42  -1.60  -302.742969    3      25     
iter:  24  06:30:30  -1.52  -1.52  -304.106356    3      27     
iter:  25  06:31:08  -1.38  -1.52  -307.359749    3      30     
iter:  26  06:31:45  -1.48  -1.43  -300.577304    4      30     
iter:  27  06:32:21  -2.08  -1.62  -300.008709    3      22     
iter:  28  06:32:57  -2.47  -1.66  -300.157937    3      19     
iter:  29  06:33:33  -2.08  -1.66  -301.207138    3      24     
iter:  30  06:34:10  -1.91  -1.61  -300.867005    2      23     
iter:  31  06:34:48  -1.49  -1.64  -314.231297    4      31     
iter:  32  06:35:25  -1.30  -1.37  -300.766003    4      31     
iter:  33  06:36:01  -1.90  -1.66  -300.397828    3      19     
iter:  34  06:36:37  -2.21  -1.68  -300.042434    3      20     
iter:  35  06:37:13  -2.45  -1.72  -299.979344    2      19     
iter:  36  06:37:49  -2.98  -1.74  -299.948306    3      16     
iter:  37  06:38:26  -1.77  -1.75  -305.229788    3      29     
iter:  38  06:39:03  -1.48  -1.53  -300.724182    4      29     
iter:  39  06:39:40  -2.00  -1.72  -301.368962    3      24     
iter:  40  06:40:15  -1.90  -1.71  -301.282046    3      15     
iter:  41  06:40:52  -1.82  -1.70  -301.588019    3      26     
iter:  42  06:41:29  -2.00  -1.69  -299.844663    3      23     
iter:  43  06:42:06  -1.80  -1.83  -304.890814    3      28     
iter:  44  06:42:44  -1.65  -1.56  -299.964357    4      29     
iter:  45  06:43:19  -2.20  -1.84  -300.139365    3      12     
iter:  46  06:43:55  -2.24  -1.83  -300.497831    3      17     
iter:  47  06:44:31  -2.03  -1.80  -301.115883    3      23     
iter:  48  06:45:08  -1.99  -1.79  -300.399736    3      25     
iter:  49  06:45:46  -1.68  -1.80  -308.457643    3      30     
iter:  50  06:46:24  -1.54  -1.47  -300.234980    4      30     
iter:  51  06:47:00  -2.23  -1.84  -299.813905    3      19     
iter:  52  06:47:35  -2.81  -1.93  -299.949933    3      16     
iter:  53  06:48:11  -2.33  -1.90  -300.538062    3      22     
iter:  54  06:48:47  -2.29  -1.84  -299.928018    3      21     
iter:  55  06:49:25  -1.68  -1.93  -310.135337    4      30     
iter:  56  06:50:02  -1.52  -1.46  -300.303626    4      30     
iter:  57  06:50:37  -2.06  -1.95  -300.319956    3      23     
iter:  58  06:51:12  -2.08  -1.87  -300.502760    3      21     
iter:  59  06:51:47  -2.14  -1.87  -300.235111    3      21     
iter:  60  06:52:23  -2.54  -1.94  -299.817394    3      20     
iter:  61  06:52:59  -1.98  -2.03  -304.042478    3      28     
iter:  62  06:53:36  -1.77  -1.61  -300.088549    4      28     
iter:  63  06:54:11  -2.42  -1.98  -299.780075    3      13     
iter:  64  06:54:47  -2.78  -2.07  -299.929141    3      18     
iter:  65  06:55:22  -2.71  -2.02  -299.822010    3      16     
iter:  66  06:55:56  -3.04  -2.07  -299.822753    3      19     
iter:  67  06:56:32  -2.12  -2.06  -302.061090    3      25     
iter:  68  06:57:08  -1.97  -1.73  -299.875669    3      26     
iter:  69  06:57:43  -2.55  -2.08  -299.884740    3      19     
iter:  70  06:58:19  -2.59  -2.08  -299.876025    2      19     
iter:  71  06:59:00  -2.74  -2.10  -299.811200    2      20     
iter:  72  06:59:42  -3.16  -2.13  -299.728504    3      18     
iter:  73  07:00:24  -2.45  -2.16  -300.568545    3      23     
iter:  74  07:01:00  -2.27  -1.90  -299.953334    3      24     
iter:  75  07:01:35  -2.72  -2.07  -299.751465    3      21     
iter:  76  07:02:09  -3.04  -2.17  -299.764060    2      10     
iter:  77  07:02:43  -3.01  -2.18  -299.795921    3      12     
iter:  78  07:03:17  -3.08  -2.19  -299.703444    3      15     
iter:  79  07:03:52  -2.73  -2.23  -299.951272    3      18     
iter:  80  07:04:27  -2.59  -2.10  -299.777754    3      20     
iter:  81  07:05:04  -2.45  -2.23  -300.507453    3      23     
iter:  82  07:05:40  -2.42  -1.98  -299.832253    3      22     
iter:  83  07:06:13  -2.74  -2.19  -299.848045    3      13     
iter:  84  07:06:48  -2.72  -2.24  -299.777063    3      18     
iter:  85  07:07:22  -2.93  -2.25  -299.714544    3      16     
iter:  86  07:07:56  -2.96  -2.31  -299.743711    3      15     
iter:  87  07:08:32  -3.26  -2.31  -299.691949    3      17     
iter:  88  07:09:12  -3.59  -2.37  -299.669530    2      16     
iter:  89  07:09:53  -3.57  -2.41  -299.730088    3      14     
iter:  90  07:10:35  -3.05  -2.37  -299.804587    2      19     
iter:  91  07:11:10  -3.12  -2.29  -299.675689    3      15     
iter:  92  07:11:45  -3.46  -2.43  -299.731103    3      17     
iter:  93  07:12:21  -3.28  -2.35  -299.718551    2      19     
iter:  94  07:12:56  -3.42  -2.37  -299.676832    3      18     
iter:  95  07:13:29  -3.77  -2.46  -299.688449    2      10     
iter:  96  07:14:04  -3.32  -2.47  -299.758222    3      16     
iter:  97  07:14:38  -3.13  -2.39  -299.690769    3      14     
iter:  98  07:15:13  -3.55  -2.46  -299.696619    2      16     
iter:  99  07:15:48  -3.42  -2.45  -299.731567    3      16     
iter: 100  07:16:24  -3.27  -2.43  -299.712920    3      19     
iter: 101  07:16:57  -3.42  -2.44  -299.688877    2      9      
iter: 102  07:17:31  -3.56  -2.53  -299.693923    3      15     
iter: 103  07:18:05  -3.35  -2.54  -299.694718    3      15     
iter: 104  07:18:39  -3.44  -2.49  -299.687921    3      9      
iter: 105  07:19:15  -3.61  -2.55  -299.712085    2      17     
iter: 106  07:19:50  -3.50  -2.51  -299.695636    3      16     
iter: 107  07:20:30  -3.73  -2.56  -299.661354    2      14     
iter: 108  07:21:08  -3.75  -2.69  -299.701913    3      15     
iter: 109  07:21:54  -3.60  -2.54  -299.671525    2      13     
iter: 110  07:22:43  -4.09  -2.66  -299.660517    2      8      
iter: 111  07:23:28  -4.30  -2.73  -299.662400    2      5      
iter: 112  07:24:06  -3.81  -2.72  -299.694182    3      14     
iter: 113  07:24:40  -3.71  -2.60  -299.669527    2      16     
iter: 114  07:25:15  -3.82  -2.70  -299.713706    3      16     
iter: 115  07:25:52  -3.61  -2.54  -299.674052    3      16     
iter: 116  07:26:27  -3.82  -2.68  -299.668204    2      13     
iter: 117  07:27:00  -4.09  -2.72  -299.674228    2      11     
iter: 118  07:27:33  -3.84  -2.72  -299.681534    3      7      
iter: 119  07:28:06  -3.70  -2.71  -299.670853    3      11     
iter: 120  07:28:41  -3.77  -2.71  -299.698204    3      15     
iter: 121  07:29:16  -3.69  -2.60  -299.675505    2      15     
iter: 122  07:29:50  -3.93  -2.70  -299.662848    2      6      
iter: 123  07:30:25  -4.37  -2.84  -299.668567    2      12     
iter: 124  07:30:59  -4.11  -2.79  -299.669917    2      8      
iter: 125  07:31:33  -4.11  -2.80  -299.660259    2      5      
iter: 126  07:32:07  -4.38  -2.86  -299.664425    2      10     
iter: 127  07:32:42  -4.60  -2.87  -299.664400    2      11     
iter: 128  07:33:17  -4.72  -2.84  -299.661302    2      9      
iter: 129  07:33:50  -4.89  -2.93  -299.661118    2      5      
iter: 130  07:34:25  -4.67  -2.92  -299.662033    2      8      
iter: 131  07:34:59  -4.53  -2.91  -299.666750    2      5      
iter: 132  07:35:33  -4.43  -2.91  -299.662601    2      11     
iter: 133  07:36:08  -4.30  -2.90  -299.676086    2      13     
iter: 134  07:36:43  -4.19  -2.79  -299.660275    2      12     
iter: 135  07:37:17  -4.77  -2.97  -299.662090    2      5      
iter: 136  07:37:50  -4.87  -2.97  -299.662287    2      6      
iter: 137  07:38:24  -4.83  -2.99  -299.659515    2      4      
iter: 138  07:38:58  -4.69  -3.00  -299.663957    2      9      
iter: 139  07:39:32  -4.48  -2.96  -299.668942    3      9      
iter: 140  07:40:08  -3.99  -2.95  -299.671353    2      13     
iter: 141  07:40:42  -4.03  -2.87  -299.671591    2      9      
iter: 142  07:41:16  -4.01  -2.90  -299.666650    2      8      
iter: 143  07:41:50  -4.09  -3.01  -299.668056    2      6      
iter: 144  07:42:25  -4.35  -3.08  -299.665398    2      12     
iter: 145  07:43:00  -4.55  -3.00  -299.664301    2      10     
iter: 146  07:43:34  -4.27  -3.17  -299.673693    2      13     
iter: 147  07:44:09  -4.31  -2.88  -299.660551    2      12     
iter: 148  07:44:43  -4.51  -3.25  -299.665219    2      6      
iter: 149  07:45:17  -4.53  -3.11  -299.662910    2      5      
iter: 150  07:45:52  -4.87  -3.32  -299.663573    2      10     
iter: 151  07:46:26  -4.57  -3.15  -299.663517    2      8      
iter: 152  07:47:00  -4.71  -3.15  -299.660104    2      5      
iter: 153  07:47:33  -5.45  -3.39  -299.660948    2      5      
iter: 154  07:48:07  -5.54  -3.39  -299.661500    2      3      
iter: 155  07:48:41  -5.53  -3.42  -299.661919    2      3      
iter: 156  07:49:13  -5.54  -3.40  -299.660448    2      3      
iter: 157  07:49:46  -5.57  -3.46  -299.661354    2      5      
iter: 158  07:50:19  -5.43  -3.37  -299.661694    2      4      
iter: 159  07:50:52  -5.69  -3.45  -299.661556    2      4      
iter: 160  07:51:34  -5.57  -3.45  -299.660487    2      3      
iter: 161  07:52:22  -5.57  -3.48  -299.660171    2      4      
iter: 162  07:53:10  -5.40  -3.45  -299.661604    2      3      
iter: 163  07:54:09  -5.26  -3.51  -299.662994    2      5      
iter: 164  07:55:05  -4.92  -3.39  -299.660919    2      4      
iter: 165  07:55:50  -5.51  -3.48  -299.661480    2      5      
iter: 166  07:56:24  -5.40  -3.49  -299.662595    2      6      
iter: 167  07:57:11  -5.25  -3.41  -299.662263    2      5      
iter: 168  07:58:01  -4.93  -3.77  -299.660157    2      5      
iter: 169  07:58:46  -4.95  -3.45  -299.660921    2      5      
iter: 170  07:59:30  -5.41  -3.84  -299.661054    2      3      
iter: 171  08:00:12  -5.64  -3.82  -299.661372    2      4      
iter: 172  08:00:51  -6.15  -3.93  -299.661062    2      3      
iter: 173  08:01:25  -5.67  -4.11  -299.662103    2      6      
iter: 174  08:02:01  -5.64  -3.58  -299.661248    2      3      
iter: 175  08:02:33  -6.35  -4.02  -299.661179    2      3      
iter: 176  08:03:17  -6.05  -4.18  -299.661045    2      3      
iter: 177  08:04:08  -6.27  -4.02  -299.661126    2      3      
iter: 178  08:04:54  -6.71  -4.19  -299.661069    2      2      
iter: 179  08:05:46  -6.75  -4.17  -299.661020    2      2      
iter: 180  08:06:31  -6.25  -4.20  -299.661199    2      3      
iter: 181  08:07:15  -5.89  -4.03  -299.661439    2      3      
iter: 182  08:07:49  -6.06  -3.99  -299.661091    2      3      
iter: 183  08:08:27  -6.55  -4.22  -299.661175    2      2      
iter: 184  08:09:04  -6.72  -4.22  -299.661138    2      2      
iter: 185  08:09:39  -6.31  -4.43  -299.661043    2      3      
iter: 186  08:10:22  -6.34  -4.07  -299.661128    2      2      
iter: 187  08:10:58  -7.54  -4.36  -299.661103    1      1      

Converged after 187 iterations.

Dipole moment: (-28.500995, -6.696568, 2.563437) |e|*Ang

Energy contributions relative to reference atoms: (reference = -648925.267931)

Kinetic:       +204.306389
Potential:     -238.523835
External:        +0.000000
XC:            -277.937149
Entropy (-ST):   -2.880898
Local:          +13.933941
--------------------------
Free energy:   -301.101552
Extrapolated:  -299.661103

Fermi level: 1.49737

 Band  Eigenvalues  Occupancy
    0    -22.36601    2.00000
    1    -22.33600    2.00000
    2    -22.24225    2.00000
    3    -22.19489    2.00000
    4    -22.18261    2.00000
    5    -22.10328    2.00000
    6    -22.09199    2.00000
    7    -22.03421    2.00000
    8    -21.91846    2.00000
    9    -21.90947    2.00000
   10    -21.88949    2.00000
   11    -21.87137    2.00000
   12    -21.72881    2.00000
   13    -21.69009    2.00000
   14    -21.67413    2.00000
   15    -21.64364    2.00000
   16    -21.59919    2.00000
   17    -21.57624    2.00000
   18    -21.55780    2.00000
   19    -21.54122    2.00000
   20    -21.50035    2.00000
   21    -21.48139    2.00000
   22    -21.45211    2.00000
   23    -21.38769    2.00000
   24    -21.36455    2.00000
   25    -21.35756    2.00000
   26    -21.28159    2.00000
   27    -21.26306    2.00000
   28    -21.19146    2.00000
   29    -21.15701    2.00000
   30    -21.14460    2.00000
   31    -20.98717    2.00000
   32    -16.98490    2.00000
   33    -16.96846    2.00000
   34    -16.95268    2.00000
   35    -16.85188    2.00000
   36     -5.45502    2.00000
   37     -5.42036    2.00000
   38     -5.36476    2.00000
   39     -5.26677    2.00000
   40     -5.21562    2.00000
   41     -5.19838    2.00000
   42     -5.17826    2.00000
   43     -5.14431    2.00000
   44     -4.98762    2.00000
   45     -4.92064    2.00000
   46     -4.81275    2.00000
   47     -4.71561    2.00000
   48     -4.65298    2.00000
   49     -4.64788    2.00000
   50     -4.60823    2.00000
   51     -4.56181    2.00000
   52     -4.54658    2.00000
   53     -4.51377    2.00000
   54     -4.50241    2.00000
   55     -4.48363    2.00000
   56     -4.44923    2.00000
   57     -4.43891    2.00000
   58     -4.40801    2.00000
   59     -4.39050    2.00000
   60     -4.35063    2.00000
   61     -4.32734    2.00000
   62     -4.31892    2.00000
   63     -4.30832    2.00000
   64     -4.25781    2.00000
   65     -4.21164    2.00000
   66     -4.19532    2.00000
   67     -4.17495    2.00000
   68     -4.14962    2.00000
   69     -4.13193    2.00000
   70     -4.10957    2.00000
   71     -4.08564    2.00000
   72     -4.06419    2.00000
   73     -4.06004    2.00000
   74     -4.04797    2.00000
   75     -4.02114    2.00000
   76     -3.98567    2.00000
   77     -3.96257    2.00000
   78     -3.92598    2.00000
   79     -3.90773    2.00000
   80     -3.85828    2.00000
   81     -3.82681    2.00000
   82     -3.72538    2.00000
   83     -3.67544    2.00000
   84     -3.66402    2.00000
   85     -3.62136    2.00000
   86     -3.54100    2.00000
   87     -3.50856    2.00000
   88     -3.44811    2.00000
   89     -3.44679    2.00000
   90     -3.41022    2.00000
   91     -3.39454    2.00000
   92     -3.33023    2.00000
   93     -3.26037    2.00000
   94     -3.21293    2.00000
   95     -3.19926    2.00000
   96     -3.15724    2.00000
   97     -3.12390    2.00000
   98     -3.11121    2.00000
   99     -3.09558    2.00000
  100     -3.07591    2.00000
  101     -3.04478    2.00000
  102     -3.01041    2.00000
  103     -2.98068    2.00000
  104     -2.95829    2.00000
  105     -2.94771    2.00000
  106     -2.90919    2.00000
  107     -2.86292    2.00000
  108     -2.84653    2.00000
  109     -2.82976    2.00000
  110     -2.79512    2.00000
  111     -2.79137    2.00000
  112     -2.78395    2.00000
  113     -2.74313    2.00000
  114     -2.66476    2.00000
  115     -2.59966    2.00000
  116     -2.56990    2.00000
  117     -2.55193    2.00000
  118     -2.54444    2.00000
  119     -2.50861    2.00000
  120     -2.49222    2.00000
  121     -2.47028    2.00000
  122     -2.44982    2.00000
  123     -2.42474    2.00000
  124     -2.37700    2.00000
  125     -2.33611    2.00000
  126     -2.31709    2.00000
  127     -2.28502    2.00000
  128     -2.25170    2.00000
  129     -2.23968    2.00000
  130     -2.22146    2.00000
  131     -2.20367    2.00000
  132     -2.17584    2.00000
  133     -2.13368    2.00000
  134     -2.12298    2.00000
  135     -2.04836    2.00000
  136     -2.03929    2.00000
  137     -1.97905    2.00000
  138     -1.94758    2.00000
  139     -1.93284    2.00000
  140     -1.91867    2.00000
  141     -1.85697    2.00000
  142     -1.82729    2.00000
  143     -1.79014    2.00000
  144      0.74018    1.99897
  145      0.76126    1.99873
  146      0.76971    1.99862
  147      0.80770    1.99798
  148      0.82333    1.99764
  149      0.83969    1.99722
  150      0.87676    1.99597
  151      0.88882    1.99546
  152      0.91756    1.99395
  153      0.93589    1.99274
  154      0.95676    1.99106
  155      0.96356    1.99044
  156      0.96537    1.99026
  157      0.98128    1.98859
  158      1.00443    1.98564
  159      1.01788    1.98359
  160      1.04812    1.97786
  161      1.07671    1.97064
  162      1.08904    1.96686
  163      1.09223    1.96580
  164      1.12491    1.95289
  165      1.12705    1.95189
  166      1.13444    1.94830
  167      1.13881    1.94605
  168      1.15438    1.93725
  169      1.16798    1.92843
  170      1.17383    1.92429
  171      1.18348    1.91694
  172      1.18699    1.91410
  173      1.19810    1.90449
  174      1.20190    1.90097
  175      1.21484    1.88805
  176      1.23900    1.85961
  177      1.27815    1.79909
  178      1.29616    1.76411
  179      1.30969    1.73448
  180      1.32182    1.70528
  181      1.34079    1.65435
  182      1.36622    1.57550
  183      1.37204    1.55572
  184      1.37840    1.53337
  185      1.39705    1.46337
  186      1.41664    1.38304
  187      1.44219    1.26909
  188      1.49539    1.00988
  189      1.50748    0.94946
  190      1.53149    0.83101
  191      1.58082    0.60538
  192      1.59767    0.53668
  193      1.62878    0.42360
  194      1.64765    0.36401
  195      1.65695    0.33712
  196      1.72907    0.17945
  197      1.74748    0.15155
  198      1.78770    0.10398
  199      1.80030    0.09223
  200      1.83700    0.06482
  201      1.85605    0.05388
  202      1.86703    0.04841
  203      1.91504    0.03023
  204      2.00946    0.01187
  205      2.06237    0.00701
  206      2.12589    0.00372
  207      2.14679    0.00302
  208      2.17018    0.00239
  209      2.34127    0.00043
  210      2.35402    0.00038
  211      2.40335    0.00023
  212      2.42178    0.00019
  213      2.44767    0.00015
  214      2.48843    0.00010
  215      2.59544    0.00003
  216      2.62073    0.00003
  217      2.64576    0.00002
  218      2.72873    0.00001
  219      2.74466    0.00001
  220      2.77271    0.00001
  221      2.82747    0.00000
  222      2.89549    0.00000
  223      2.92607    0.00000
  224      4.80839    0.00000
  225      5.63612    0.00000
  226      6.11314    0.00000
  227      6.69826    0.00000
  228      7.29463    0.00000
  229      7.56598    0.00000
  230      7.64238    0.00000
  231      7.86401    0.00000
  232      8.11743    0.00000
  233      8.36300    0.00000
  234      8.52988    0.00000
  235      8.79871    0.00000
  236      9.76563    0.00000
  237      9.92348    0.00000
  238      9.97230    0.00000
  239     10.03499    0.00000
  240     10.31611    0.00000
  241     10.62688    0.00000
  242     10.63858    0.00000
  243     10.73593    0.00000
  244     10.81707    0.00000
  245     10.87518    0.00000
  246     10.88555    0.00000
  247     11.14095    0.00000
  248     11.17132    0.00000
  249     11.23103    0.00000
  250     11.42578    0.00000
  251     11.47073    0.00000
  252     11.63554    0.00000
  253     11.72051    0.00000
  254     11.78559    0.00000
  255     11.79972    0.00000
  256     11.87279    0.00000
  257     11.96290    0.00000
  258     12.14424    0.00000
  259     12.18506    0.00000
  260     12.22711    0.00000
  261     12.24871    0.00000
  262     12.35366    0.00000
  263     12.38014    0.00000
  264     12.42126    0.00000
  265     12.45129    0.00000
  266     12.51738    0.00000
  267     12.54190    0.00000
  268     12.58431    0.00000
  269     12.67966    0.00000
  270     12.73890    0.00000
  271     12.89497    0.00000
  272     12.93475    0.00000
  273     12.99455    0.00000
  274     13.10387    0.00000
  275     13.14927    0.00000
  276     13.23523    0.00000
  277     13.24484    0.00000
  278     13.38154    0.00000
  279     13.44297    0.00000
  280     13.59224    0.00000
  281     13.88507    0.00000
  282     13.96761    0.00000
  283     14.10261    0.00000
  284     14.28838    0.00000
  285     14.33156    0.00000
  286     14.36029    0.00000
  287     14.42833    0.00000

Timing:                              incl.     excl.
-----------------------------------------------------------
Hamiltonian:                         6.090     0.000   0.0% |
 Atomic:                             2.382     0.006   0.0% |
  XC Correction:                     2.376     2.376   0.0% |
 Calculate atomic Hamiltonians:      0.039     0.039   0.0% |
 Communicate:                        0.000     0.000   0.0% |
 Hartree integrate/restrict:         0.025     0.025   0.0% |
 Initialize Hamiltonian:             0.000     0.000   0.0% |
 Poisson:                            2.978     2.978   0.0% |
 XC 3D grid:                         0.660     0.660   0.0% |
 vbar:                               0.007     0.007   0.0% |
LCAO initialization:                20.935     0.245   0.0% |
 LCAO eigensolver:                   2.080     0.000   0.0% |
  Calculate projections:             0.024     0.024   0.0% |
  DenseAtomicCorrection:             0.023     0.023   0.0% |
  Distribute overlap matrix:         0.000     0.000   0.0% |
  Orbital Layouts:                   0.063     0.063   0.0% |
  Potential matrix:                  1.970     1.970   0.0% |
 LCAO to grid:                      17.315    17.315   0.2% |
 Set positions (LCAO WFS):           1.295     0.000   0.0% |
  Basic WFS set positions:           0.002     0.002   0.0% |
  Basis functions set positions:     0.000     0.000   0.0% |
  TCI: Calculate S, T, P:            1.292     1.292   0.0% |
SCF-cycle:                        6909.003     0.156   0.0% |
 Davidson:                        5853.933   964.367  13.9% |-----|
  Apply hamiltonian:               179.815   179.815   2.6% ||
  Subspace diag:                  1684.068     0.037   0.0% |
   calc_h_matrix:                  681.989   502.113   7.2% |--|
    Apply hamiltonian:             179.875   179.875   2.6% ||
   diagonalize:                      4.150     4.150   0.1% |
   rotate_psi:                     997.892   997.892  14.4% |-----|
  calc. matrices:                 2008.315  1828.399  26.4% |----------|
   Apply hamiltonian:              179.915   179.915   2.6% ||
  diagonalize:                      18.435    18.435   0.3% |
  rotate_psi:                      998.933   998.933  14.4% |-----|
 Density:                           20.388     0.005   0.0% |
  Atomic density matrices:           1.090     1.090   0.0% |
  Mix:                               9.497     9.497   0.1% |
  Multipole moments:                 0.224     0.224   0.0% |
  Pseudo density:                    9.572     9.568   0.1% |
   Symmetrize density:               0.004     0.004   0.0% |
 Hamiltonian:                     1029.111     0.025   0.0% |
  Atomic:                          439.376     0.909   0.0% |
   XC Correction:                  438.467   438.467   6.3% |--|
  Calculate atomic Hamiltonians:     5.942     5.942   0.1% |
  Communicate:                       0.002     0.002   0.0% |
  Hartree integrate/restrict:        3.871     3.871   0.1% |
  Poisson:                         455.334   455.334   6.6% |--|
  XC 3D grid:                      123.363   123.363   1.8% ||
  vbar:                              1.197     1.197   0.0% |
 Orthonormalize:                     5.415     0.000   0.0% |
  calc_s_matrix:                     1.574     1.574   0.0% |
  inverse-cholesky:                  0.004     0.004   0.0% |
  projections:                       1.218     1.218   0.0% |
  rotate_psi_s:                      2.618     2.618   0.0% |
Set symmetry:                        0.001     0.001   0.0% |
Other:                               1.418     1.418   0.0% |
-----------------------------------------------------------
Total:                                      6937.447 100.0%

Memory usage: 1.07 GiB
Date: Thu Mar 28 08:10:58 2019
