
  ___ ___ ___ _ _ _  
 |   |   |_  | | | | 
 | | | | | . | | | | 
 |__ |  _|___|_____|  1.4.0
 |___|_|             

User:   murakami@tssm1.eng.shizuoka.ac.jp
Date:   Tue Mar 26 23:30:46 2019
Arch:   x86_64
Pid:    31289
Python: 3.6.5
gpaw:   /home/murakami/.local/lib/python3.6/site-packages/gpaw
_gpaw:  /home/murakami/.local/lib/python3.6/site-packages/
        _gpaw.cpython-36m-x86_64-linux-gnu.so
ase:    /home/murakami/.local/lib/python3.6/site-packages/ase (version 3.16.2)
numpy:  /home/murakami/.local/lib/python3.6/site-packages/numpy (version 1.15.2)
scipy:  /home/murakami/.local/lib/python3.6/site-packages/scipy (version 1.1.0)
units:  Angstrom and eV
cores:  1

Input parameters:
  kpts: {size: (1, 1, 1)}
  maxiter: 300
  xc: PBE

System changes: positions, numbers, cell, pbc, initial_charges, initial_magmoms 

Initialize ...

Fe-setup:
  name: Iron
  id: 37abbd8d6c3c35915a9b583b742da910
  Z: 26
  valence: 8
  core: 18
  charge: 0.0
  file: /home/murakami/Public/gpaw-setups-0.9.20000/Fe.PBE.gz
  cutoffs: 1.06(comp), 2.06(filt), 2.67(core), lmax=2
  valence states:
                energy  radius
    4s(2.00)    -5.291   1.164
    4p(0.00)    -1.326   1.058
    3d(6.00)    -7.505   1.058
    *s          21.920   1.164
    *p          25.885   1.058
    *d          19.706   1.058

  Using partial waves for Fe as LCAO basis

O-setup:
  name: Oxygen
  id: 32ecd46bf208036f09c70b0ec9a88b78
  Z: 8
  valence: 6
  core: 2
  charge: 0.0
  file: /home/murakami/Public/gpaw-setups-0.9.20000/O.PBE.gz
  cutoffs: 0.67(comp), 1.17(filt), 0.83(core), lmax=2
  valence states:
                energy  radius
    2s(2.00)   -23.961   0.688
    2p(4.00)    -9.029   0.598
    *s           3.251   0.688
    *p          18.182   0.598
    *d           0.000   0.619

  Using partial waves for O as LCAO basis

F-setup:
  name: Fluorine
  id: 9cd46ba2a61e170ad72278be75b55cc0
  Z: 9
  valence: 7
  core: 2
  charge: 0.0
  file: /home/murakami/Public/gpaw-setups-0.9.20000/F.PBE.gz
  cutoffs: 0.64(comp), 1.14(filt), 0.74(core), lmax=2
  valence states:
                energy  radius
    2s(2.00)   -29.898   0.635
    2p(5.00)   -11.110   0.635
    *s          -2.687   0.635
    *p          16.102   0.635
    *d           0.000   0.635

  Using partial waves for F as LCAO basis

Reference energy: -648925.267931

Spin-paired calculation

Occupation numbers:
  Fermi-Dirac: width=0.1000 eV

Convergence criteria:
  Maximum total energy change: 0.0005 eV / electron
  Maximum integral of absolute density change: 0.0001 electrons
  Maximum integral of absolute eigenstate change: 4e-08 eV^2
  Maximum number of iterations: 300

Symmetries present (total): 1

  ( 1  0  0)
  ( 0  1  0)
  ( 0  0  1)

1 k-point (Gamma)
1 k-point in the irreducible part of the Brillouin zone
       k-points in crystal coordinates                weights
   0:     0.00000000    0.00000000    0.00000000          1/1

Wave functions: Uniform real-space grid
  Kinetic energy operator: 8*3+1=25 point O(h^6) finite-difference Laplacian
  ScaLapack parameters: grid=1x1, blocksize=None 

Eigensolver
   Davidson(niter=1, smin=None, normalize=True) 

Densities:
  Coarse grid: 48*28*76 grid
  Fine grid: 96*56*152 grid
  Total Charge: 0.000000 

Density mixing:
  Method: separate
  Backend: pulay
  Linear mixing parameter: 0.05
  Mixing with 5 old densities
  Damping of long wave oscillations: 50 

Hamiltonian:
  XC and Coulomb potentials evaluated on a 96*56*152 grid
  Using the PBE Exchange-Correlation functional
  Interpolation: tri-quintic (5. degree polynomial)
  Poisson solver: Jacobi solver with 4 multi-grid levels
    Coarsest grid: 12 x 7 x 19 points
    Stencil: 8*3+1=25 point O(h^6) finite-difference Laplacian
    Max iterations: 1000
    Tolerance: 2.000000e-10 

Memory estimate:
  Process memory now: 1075.90 MiB
  Calculator: 626.86 MiB
    Density: 116.99 MiB
      Arrays: 20.26 MiB
      Localized functions: 88.94 MiB
      Mixer: 7.79 MiB
    Hamiltonian: 35.09 MiB
      Arrays: 13.25 MiB
      XC: 0.00 MiB
      Poisson: 15.10 MiB
      vbar: 6.75 MiB
    Wavefunctions: 474.78 MiB
      Arrays psit_nG: 224.44 MiB
      Eigensolver: 234.67 MiB
      Projections: 1.66 MiB
      Projectors: 14.01 MiB

Total number of cores used: 1

Number of atoms: 52
Number of atomic orbitals: 288
Number of bands in calculation: 288
Bands to converge: occupied states only
Number of valence electrons: 376

... initialized

Initializing position-dependent things.

Density initialized from atomic densities
Creating initial wave functions:
  288 bands from LCAO basis set

                                          
                                          
                                          
                                          
                          Fe              
              F      F                    
             Fe             O             
               O        F      F          
                            Fe            
         F      F        F                
               Fe                         
            Fe     F      F               
              F       F     F             
         F     F      Fe                  
                       F    Fe            
             Fe  O       F      F         
               Fe Fe                      
            F      F  Fe  O               
              F      F     Fe             
                         Fe               
        F    FeF       F                  
                                          
          F     F Fe     F                
            F                             
                   F      F Fe            
                                          
                                          
                                          
                                          
                                          

Positions:
   0 Fe     1.604597    2.593853    2.676824    ( 0.0000,  0.0000,  0.0000)
   1 Fe     1.493952    2.745784   10.155423    ( 0.0000,  0.0000,  0.0000)
   2 Fe     6.174328    5.273587    2.635533    ( 0.0000,  0.0000,  0.0000)
   3 Fe     6.208408    0.085880   10.112824    ( 0.0000,  0.0000,  0.0000)
   4 Fe     1.635429    2.534235   14.537109    ( 0.0000,  0.0000,  0.0000)
   5 Fe     1.608778    2.825232    7.059751    ( 0.0000,  0.0000,  0.0000)
   6 Fe     6.239088    5.213968   14.495512    ( 0.0000,  0.0000,  0.0000)
   7 Fe     6.264121    0.145499    7.017686    ( 0.0000,  0.0000,  0.0000)
   8 Fe     3.046621    0.157643   12.241163    ( 0.0000,  0.0000,  0.0000)
   9 Fe     3.071552    5.201824    4.793817    ( 0.0000,  0.0000,  0.0000)
  10 Fe     7.701861    2.837377   12.229578    ( 0.0000,  0.0000,  0.0000)
  11 Fe     7.726894    2.522090    4.751753    ( 0.0000,  0.0000,  0.0000)
  12 Fe     3.080332    0.023153    7.705724    ( 0.0000,  0.0000,  0.0000)
  13 Fe     3.105365    5.336314    0.227899    ( 0.0000,  0.0000,  0.0000)
  14 Fe     7.735674    2.718348    7.663660    ( 0.0000,  0.0000,  0.0000)
  15 Fe     7.760707    2.656581    0.185834    ( 0.0000,  0.0000,  0.0000)
  16 O      2.833126    1.433164   13.814659    ( 0.0000,  0.0000,  0.0000)
  17 O      2.858159    3.926303    6.336834    ( 0.0000,  0.0000,  0.0000)
  18 O      7.564360    4.158153   13.771909    ( 0.0000,  0.0000,  0.0000)
  19 O      7.513502    1.246569    6.294769    ( 0.0000,  0.0000,  0.0000)
  20 F      0.023735    1.976797    3.648091    ( 0.0000,  0.0000,  0.0000)
  21 F      0.067908    3.382670   11.125291    ( 0.0000,  0.0000,  0.0000)
  22 F      4.679078    4.676639    3.606027    ( 0.0000,  0.0000,  0.0000)
  23 F      4.654045    0.702937   11.083852    ( 0.0000,  0.0000,  0.0000)
  24 F      0.212281    2.119010    8.659520    ( 0.0000,  0.0000,  0.0000)
  25 F      0.237314    3.240457    1.181694    ( 0.0000,  0.0000,  0.0000)
  26 F      4.867623    4.798743    8.617455    ( 0.0000,  0.0000,  0.0000)
  27 F      4.892656    0.560724    1.139630    ( 0.0000,  0.0000,  0.0000)
  28 F      1.635598    1.147837    1.234055    ( 0.0000,  0.0000,  0.0000)
  29 F      1.610565    4.211630    8.711881    ( 0.0000,  0.0000,  0.0000)
  30 F      6.291025    3.827571    1.166970    ( 0.0000,  0.0000,  0.0000)
  31 F      6.265908    1.531896    8.669816    ( 0.0000,  0.0000,  0.0000)
  32 F      1.685846    1.090357   11.043449    ( 0.0000,  0.0000,  0.0000)
  33 F      1.677659    4.269110    3.565923    ( 0.0000,  0.0000,  0.0000)
  34 F      6.307968    3.770090   11.001684    ( 0.0000,  0.0000,  0.0000)
  35 F      6.333001    1.558946    3.523859    ( 0.0000,  0.0000,  0.0000)
  36 F      1.738536    1.081862    6.320255    ( 0.0000,  0.0000,  0.0000)
  37 F      1.713503    4.277605   13.798081    ( 0.0000,  0.0000,  0.0000)
  38 F      6.393811    3.761596    6.298411    ( 0.0000,  0.0000,  0.0000)
  39 F      6.368846    1.597871   13.756016    ( 0.0000,  0.0000,  0.0000)
  40 F      2.703520    1.859028    8.623789    ( 0.0000,  0.0000,  0.0000)
  41 F      2.728553    3.500439    1.145964    ( 0.0000,  0.0000,  0.0000)
  42 F      7.358862    4.538761    8.581725    ( 0.0000,  0.0000,  0.0000)
  43 F      7.383895    0.820706    1.103899    ( 0.0000,  0.0000,  0.0000)
  44 F      2.809777    1.637912    3.663072    ( 0.0000,  0.0000,  0.0000)
  45 F      2.784674    3.721555   11.161611    ( 0.0000,  0.0000,  0.0000)
  46 F      7.465050    4.317646    3.641721    ( 0.0000,  0.0000,  0.0000)
  47 F      7.440017    1.021150   11.119547    ( 0.0000,  0.0000,  0.0000)
  48 F      4.547293    0.721642    6.408117    ( 0.0000,  0.0000,  0.0000)
  49 F      4.522833    4.637825   13.714984    ( 0.0000,  0.0000,  0.0000)
  50 F      9.203050    3.401375    6.242220    ( 0.0000,  0.0000,  0.0000)
  51 F      9.178017    1.926637   13.720045    ( 0.0000,  0.0000,  0.0000)

Unit cell:
           periodic     x           y           z      points  spacing
  1. axis:    yes    9.310685    0.000000   -0.084129    48     0.1940
  2. axis:    yes    0.000000    5.359467    0.000000    28     0.1914
  3. axis:    yes   -0.050066    0.000000   14.955651    76     0.1968

  Lengths:   9.311065   5.359467  14.955735
  Angles:   90.000000  90.709501  90.000000

Effective grid spacing dv^(1/3) = 0.1940

                     log10-error:    total        iterations:
           time      wfs    density  energy       fermi  poisson
iter:   1  23:32:01  +1.50   +inf  -311.704319    3      18     
iter:   2  23:32:29  +0.30   +inf  -313.303513    3             
iter:   3  23:32:59  -0.28   +inf  -313.740517    2             
iter:   4  23:33:35  -0.45  -1.13  -311.249985    3      14     
iter:   5  23:34:25  -0.44  -1.15  -320.704147    3      23     
iter:   6  23:35:21  -0.10  -1.14  -332.482539    4      33     
iter:   7  23:36:14  -0.25  -1.21  -317.411749    4      34     
iter:   8  23:36:54  -0.62  -1.26  -305.735190    4      33     
iter:   9  23:37:30  -0.79  -1.36  -309.943881    3      31     
iter:  10  23:38:04  -0.95  -1.33  -302.890913    4      29     
iter:  11  23:38:39  -1.46  -1.40  -301.254682    3      23     
iter:  12  23:39:13  -1.69  -1.45  -301.150380    4      21     
iter:  13  23:39:48  -1.74  -1.45  -303.321142    4      28     
iter:  14  23:40:24  -1.43  -1.42  -302.402375    3      30     
iter:  15  23:41:01  -1.61  -1.43  -304.951034    4      28     
iter:  16  23:41:34  -1.38  -1.43  -302.056723    4      26     
iter:  17  23:42:08  -1.50  -1.48  -302.074939    3      25     
iter:  18  23:42:42  -1.32  -1.49  -303.247597    4      28     
iter:  19  23:43:17  -1.55  -1.44  -302.591520    4      29     
iter:  20  23:43:53  -1.61  -1.48  -300.208955    3      24     
iter:  21  23:44:29  -2.26  -1.56  -300.230414    3      17     
iter:  22  23:45:11  -2.25  -1.57  -300.187117    3      18     
iter:  23  23:45:53  -1.94  -1.58  -301.455636    4      22     
iter:  24  23:46:35  -1.64  -1.57  -310.063881    3      31     
iter:  25  23:47:09  -1.41  -1.40  -301.953161    3      31     
iter:  26  23:47:46  -0.99  -1.68  -308.757305    3      27     
iter:  27  23:48:20  -1.14  -1.47  -304.023333    3      29     
iter:  28  23:48:54  -1.53  -1.58  -301.276052    3      27     
iter:  29  23:49:29  -2.05  -1.68  -299.932601    3      24     
iter:  30  23:50:03  -2.32  -1.80  -301.580366    3      24     
iter:  31  23:50:39  -1.85  -1.68  -303.067504    3      29     
iter:  32  23:51:13  -1.72  -1.62  -300.316735    3      26     
iter:  33  23:51:47  -2.01  -1.77  -301.012077    3      23     
iter:  34  23:52:21  -1.98  -1.72  -300.502167    3      25     
iter:  35  23:52:53  -2.26  -1.80  -299.885796    3      19     
iter:  36  23:53:27  -2.73  -1.86  -300.332861    3      21     
iter:  37  23:54:01  -2.24  -1.81  -301.029369    3      27     
iter:  38  23:54:42  -2.12  -1.74  -300.215352    3      24     
iter:  39  23:55:26  -2.00  -1.84  -302.892929    3      28     
iter:  40  23:56:04  -1.86  -1.65  -300.293270    4      27     
iter:  41  23:56:37  -2.04  -1.92  -300.365342    3      18     
iter:  42  23:57:13  -2.13  -1.86  -300.380508    3      21     
iter:  43  23:57:46  -2.32  -1.89  -300.469860    3      23     
iter:  44  23:58:22  -2.30  -1.91  -300.252303    3      23     
iter:  45  23:58:58  -2.21  -1.93  -300.682282    3      19     
iter:  46  23:59:32  -2.17  -1.89  -299.938675    3      21     
iter:  47  00:00:07  -2.58  -2.05  -300.121253    2      19     
iter:  48  00:00:42  -2.65  -1.99  -300.068143    3      21     
iter:  49  00:01:15  -2.84  -2.04  -300.043281    3      21     
iter:  50  00:01:49  -2.39  -2.06  -300.360652    3      22     
iter:  51  00:02:22  -2.40  -1.98  -300.579762    3      25     
iter:  52  00:02:56  -2.36  -1.92  -300.041906    3      24     
iter:  53  00:03:32  -2.83  -2.08  -299.983887    3      18     
iter:  54  00:04:07  -3.20  -2.11  -299.926358    3      18     
iter:  55  00:04:48  -3.48  -2.15  -299.930280    3      16     
iter:  56  00:05:30  -2.98  -2.16  -300.208239    3      21     
iter:  57  00:06:04  -2.61  -2.08  -300.130805    3      19     
iter:  58  00:06:37  -2.34  -2.14  -300.183145    3      18     
iter:  59  00:07:11  -2.39  -2.09  -300.266663    3      23     
iter:  60  00:07:45  -2.54  -2.05  -300.094841    2      23     
iter:  61  00:08:19  -2.93  -2.14  -299.907285    3      19     
iter:  62  00:08:51  -3.87  -2.27  -299.898142    2      9      
iter:  63  00:09:26  -3.18  -2.29  -300.126898    3      20     
iter:  64  00:10:01  -2.93  -2.16  -299.921397    3      19     
iter:  65  00:10:34  -3.08  -2.28  -299.981707    3      16     
iter:  66  00:11:07  -2.90  -2.26  -300.132190    3      20     
iter:  67  00:11:40  -2.60  -2.19  -300.173790    3      19     
iter:  68  00:12:13  -2.75  -2.13  -299.910144    3      20     
iter:  69  00:12:58  -3.24  -2.33  -299.955378    3      16     
iter:  70  00:13:48  -3.41  -2.31  -299.898385    3      17     
iter:  71  00:14:30  -3.91  -2.39  -299.894805    3      10     
iter:  72  00:15:08  -3.51  -2.41  -299.912660    2      13     
iter:  73  00:15:54  -3.23  -2.39  -299.982536    3      19     
iter:  74  00:16:30  -2.98  -2.33  -300.094859    3      22     
iter:  75  00:17:09  -2.84  -2.24  -300.124799    2      20     
iter:  76  00:17:43  -2.88  -2.26  -300.026551    3      22     
iter:  77  00:18:23  -3.09  -2.31  -299.895284    3      16     
iter:  78  00:18:58  -3.87  -2.49  -299.897623    3      8      
iter:  79  00:19:36  -3.79  -2.52  -299.912472    2      8      
iter:  80  00:20:19  -3.66  -2.51  -299.897114    3      7      
iter:  81  00:21:06  -3.30  -2.51  -300.054644    3      20     
iter:  82  00:21:51  -3.12  -2.28  -299.962730    2      20     
iter:  83  00:22:31  -3.09  -2.47  -299.969972    2      19     
iter:  84  00:23:08  -3.27  -2.39  -299.918308    3      15     
iter:  85  00:23:43  -3.65  -2.53  -299.895337    2      7      
iter:  86  00:24:16  -3.99  -2.61  -299.898059    3      6      
iter:  87  00:24:48  -4.44  -2.66  -299.901138    2      10     
iter:  88  00:25:20  -4.08  -2.67  -299.911399    2      14     
iter:  89  00:25:54  -3.26  -2.60  -300.055885    3      20     
iter:  90  00:26:27  -3.06  -2.30  -299.962568    3      19     
iter:  91  00:26:58  -3.28  -2.57  -299.936573    2      7      
iter:  92  00:27:32  -3.47  -2.66  -299.896216    3      8      
iter:  93  00:28:05  -4.01  -2.71  -299.894656    3      11     
iter:  94  00:28:39  -4.40  -2.78  -299.891929    2      9      
iter:  95  00:29:13  -4.15  -2.81  -299.909023    2      15     
iter:  96  00:29:47  -3.90  -2.68  -299.913579    3      15     
iter:  97  00:30:20  -3.93  -2.75  -299.902236    2      7      
iter:  98  00:30:54  -3.90  -2.79  -299.915559    2      13     
iter:  99  00:31:27  -4.04  -2.73  -299.891220    3      10     
iter: 100  00:32:01  -4.55  -2.87  -299.896287    2      9      
iter: 101  00:32:34  -4.65  -2.87  -299.896223    2      10     
iter: 102  00:33:08  -4.67  -2.87  -299.895505    2      11     
iter: 103  00:33:41  -4.55  -2.89  -299.894540    2      8      
iter: 104  00:34:15  -4.39  -2.89  -299.894180    2      9      
iter: 105  00:34:48  -4.37  -2.87  -299.898162    2      5      
iter: 106  00:35:21  -4.69  -2.93  -299.894919    2      9      
iter: 107  00:35:55  -4.82  -2.92  -299.895449    2      10     
iter: 108  00:36:28  -4.79  -2.94  -299.894331    2      10     
iter: 109  00:37:01  -4.97  -2.97  -299.895884    2      6      
iter: 110  00:37:35  -4.71  -2.98  -299.899582    2      7      
iter: 111  00:38:08  -4.40  -2.95  -299.890867    3      5      
iter: 112  00:38:41  -4.54  -2.97  -299.899576    2      11     
iter: 113  00:39:15  -4.52  -2.91  -299.897526    2      12     
iter: 114  00:39:49  -4.57  -2.94  -299.894785    2      12     
iter: 115  00:40:22  -4.92  -3.00  -299.892911    2      5      
iter: 116  00:40:55  -5.09  -3.05  -299.892682    2      5      
iter: 117  00:41:28  -4.69  -3.06  -299.898390    2      4      
iter: 118  00:42:01  -4.63  -3.04  -299.897629    2      10     
iter: 119  00:42:35  -4.58  -2.97  -299.896084    2      11     
iter: 120  00:43:09  -4.46  -3.03  -299.898327    2      13     
iter: 121  00:43:42  -4.54  -2.94  -299.897067    2      8      
iter: 122  00:44:15  -5.00  -3.08  -299.896532    2      5      
iter: 123  00:44:48  -4.96  -3.14  -299.892271    2      4      
iter: 124  00:45:21  -5.16  -3.15  -299.894488    2      6      
iter: 125  00:45:54  -5.12  -3.14  -299.894668    2      7      
iter: 126  00:46:28  -4.58  -3.17  -299.902658    2      11     
iter: 127  00:47:01  -4.34  -2.97  -299.894356    3      8      
iter: 128  00:47:32  -4.74  -3.10  -299.892271    2      7      
iter: 129  00:48:04  -4.88  -3.22  -299.896314    2      4      
iter: 130  00:48:35  -5.19  -3.21  -299.894565    2      4      
iter: 131  00:49:06  -5.28  -3.25  -299.894107    2      4      
iter: 132  00:49:41  -5.03  -3.28  -299.896111    2      8      
iter: 133  00:50:13  -4.73  -3.21  -299.897418    2      8      
iter: 134  00:50:45  -4.86  -3.21  -299.896208    2      6      
iter: 135  00:51:17  -4.71  -3.28  -299.891583    2      5      
iter: 136  00:51:51  -4.69  -3.21  -299.894971    2      8      
iter: 137  00:52:23  -4.95  -3.25  -299.894479    2      6      
iter: 138  00:52:55  -5.25  -3.38  -299.895705    2      6      
iter: 139  00:53:26  -5.17  -3.29  -299.894247    2      4      
iter: 140  00:53:58  -5.61  -3.37  -299.894051    2      4      
iter: 141  00:54:29  -5.46  -3.41  -299.896410    2      4      
iter: 142  00:55:04  -4.75  -3.38  -299.902070    2      11     
iter: 143  00:55:39  -4.50  -3.06  -299.894690    2      12     
iter: 144  00:56:19  -5.03  -3.37  -299.896091    2      8      
iter: 145  00:56:59  -4.83  -3.32  -299.896366    2      5      
iter: 146  00:57:33  -4.89  -3.25  -299.895774    2      5      
iter: 147  00:58:04  -5.33  -3.54  -299.893032    2      4      
iter: 148  00:58:39  -4.74  -3.52  -299.900044    3      10     
iter: 149  00:59:11  -4.56  -3.14  -299.895391    2      9      
iter: 150  00:59:45  -5.09  -3.36  -299.894029    2      6      
iter: 151  01:00:21  -5.75  -3.71  -299.894106    2      3      
iter: 152  01:00:52  -5.66  -3.73  -299.895165    2      3      
iter: 153  01:01:25  -5.70  -3.64  -299.893653    2      3      
iter: 154  01:01:58  -5.76  -3.73  -299.894429    2      4      
iter: 155  01:02:29  -5.82  -3.64  -299.894311    2      3      
iter: 156  01:03:00  -6.46  -3.80  -299.894427    2      3      
iter: 157  01:03:39  -6.42  -3.80  -299.894212    2      2      
iter: 158  01:04:10  -6.13  -3.84  -299.894192    2      4      
iter: 159  01:04:59  -6.06  -3.72  -299.894341    2      3      
iter: 160  01:05:44  -6.11  -3.78  -299.894524    2      4      
iter: 161  01:06:27  -5.53  -3.83  -299.893613    2      5      
iter: 162  01:07:02  -5.54  -3.72  -299.894608    2      4      
iter: 163  01:07:34  -5.79  -3.78  -299.894142    2      3      
iter: 164  01:08:05  -6.05  -4.08  -299.894325    2      3      
iter: 165  01:08:37  -6.08  -3.99  -299.894191    2      3      
iter: 166  01:09:09  -6.31  -4.09  -299.894022    2      3      
iter: 167  01:09:41  -6.12  -4.04  -299.894655    2      3      
iter: 168  01:10:15  -6.32  -4.01  -299.894213    2      3      
iter: 169  01:10:49  -6.39  -4.22  -299.894281    2      3      
iter: 170  01:11:32  -6.30  -4.09  -299.894371    2      3      
iter: 171  01:12:19  -6.43  -4.14  -299.894262    2      3      
iter: 172  01:12:58  -6.60  -4.08  -299.894208    2      2      
iter: 173  01:13:36  -7.09  -4.25  -299.894255    2      2      
iter: 174  01:14:09  -7.19  -4.36  -299.894182    2      2      
iter: 175  01:14:41  -7.15  -4.30  -299.894221    2      2      
iter: 176  01:15:13  -7.35  -4.39  -299.894313    2      2      
iter: 177  01:15:44  -7.24  -4.38  -299.894186    2      2      
iter: 178  01:16:16  -7.42  -4.42  -299.894248    2      2      

Converged after 178 iterations.

Dipole moment: (-31.401700, -6.623544, 2.318444) |e|*Ang

Energy contributions relative to reference atoms: (reference = -648925.267931)

Kinetic:       +222.761681
Potential:     -252.511824
External:        +0.000000
XC:            -282.486590
Entropy (-ST):   -2.774968
Local:          +13.729969
--------------------------
Free energy:   -301.281732
Extrapolated:  -299.894248

Fermi level: 1.70341

 Band  Eigenvalues  Occupancy
    0    -22.33470    2.00000
    1    -22.17102    2.00000
    2    -22.15052    2.00000
    3    -22.08550    2.00000
    4    -22.06560    2.00000
    5    -21.96977    2.00000
    6    -21.91869    2.00000
    7    -21.89018    2.00000
    8    -21.87558    2.00000
    9    -21.85161    2.00000
   10    -21.81422    2.00000
   11    -21.75573    2.00000
   12    -21.68557    2.00000
   13    -21.62251    2.00000
   14    -21.60734    2.00000
   15    -21.57264    2.00000
   16    -21.52251    2.00000
   17    -21.51157    2.00000
   18    -21.47236    2.00000
   19    -21.45905    2.00000
   20    -21.43727    2.00000
   21    -21.41868    2.00000
   22    -21.36637    2.00000
   23    -21.33878    2.00000
   24    -21.33647    2.00000
   25    -21.30828    2.00000
   26    -21.24217    2.00000
   27    -21.22961    2.00000
   28    -21.12982    2.00000
   29    -21.08215    2.00000
   30    -21.04334    2.00000
   31    -20.96688    2.00000
   32    -16.97385    2.00000
   33    -16.87156    2.00000
   34    -16.84391    2.00000
   35    -16.62476    2.00000
   36     -5.38277    2.00000
   37     -5.34125    2.00000
   38     -5.25446    2.00000
   39     -5.18754    2.00000
   40     -5.16059    2.00000
   41     -5.11978    2.00000
   42     -5.08462    2.00000
   43     -5.01011    2.00000
   44     -4.90565    2.00000
   45     -4.80191    2.00000
   46     -4.72698    2.00000
   47     -4.61479    2.00000
   48     -4.59442    2.00000
   49     -4.57818    2.00000
   50     -4.48991    2.00000
   51     -4.48404    2.00000
   52     -4.45334    2.00000
   53     -4.44511    2.00000
   54     -4.43317    2.00000
   55     -4.41773    2.00000
   56     -4.41168    2.00000
   57     -4.34547    2.00000
   58     -4.33348    2.00000
   59     -4.30951    2.00000
   60     -4.28126    2.00000
   61     -4.26235    2.00000
   62     -4.24138    2.00000
   63     -4.20438    2.00000
   64     -4.19461    2.00000
   65     -4.17106    2.00000
   66     -4.15831    2.00000
   67     -4.14246    2.00000
   68     -4.06905    2.00000
   69     -4.06308    2.00000
   70     -4.03910    2.00000
   71     -4.03019    2.00000
   72     -4.00080    2.00000
   73     -3.96587    2.00000
   74     -3.93046    2.00000
   75     -3.92139    2.00000
   76     -3.89821    2.00000
   77     -3.87718    2.00000
   78     -3.84315    2.00000
   79     -3.80370    2.00000
   80     -3.75247    2.00000
   81     -3.71362    2.00000
   82     -3.61097    2.00000
   83     -3.57349    2.00000
   84     -3.53450    2.00000
   85     -3.51954    2.00000
   86     -3.45714    2.00000
   87     -3.43916    2.00000
   88     -3.39189    2.00000
   89     -3.36632    2.00000
   90     -3.31314    2.00000
   91     -3.28428    2.00000
   92     -3.20856    2.00000
   93     -3.16371    2.00000
   94     -3.15744    2.00000
   95     -3.13266    2.00000
   96     -3.11348    2.00000
   97     -3.03980    2.00000
   98     -3.02340    2.00000
   99     -2.99292    2.00000
  100     -2.98094    2.00000
  101     -2.94494    2.00000
  102     -2.93205    2.00000
  103     -2.91680    2.00000
  104     -2.90153    2.00000
  105     -2.87847    2.00000
  106     -2.81874    2.00000
  107     -2.79159    2.00000
  108     -2.78161    2.00000
  109     -2.74395    2.00000
  110     -2.70360    2.00000
  111     -2.67796    2.00000
  112     -2.66736    2.00000
  113     -2.65367    2.00000
  114     -2.57613    2.00000
  115     -2.50894    2.00000
  116     -2.49645    2.00000
  117     -2.46870    2.00000
  118     -2.45101    2.00000
  119     -2.43995    2.00000
  120     -2.39258    2.00000
  121     -2.36497    2.00000
  122     -2.33711    2.00000
  123     -2.31176    2.00000
  124     -2.27854    2.00000
  125     -2.25030    2.00000
  126     -2.20858    2.00000
  127     -2.19796    2.00000
  128     -2.15244    2.00000
  129     -2.14736    2.00000
  130     -2.12413    2.00000
  131     -2.10376    2.00000
  132     -2.08279    2.00000
  133     -2.05368    2.00000
  134     -1.99785    2.00000
  135     -1.98445    2.00000
  136     -1.95244    2.00000
  137     -1.91283    2.00000
  138     -1.86389    2.00000
  139     -1.83713    2.00000
  140     -1.82531    2.00000
  141     -1.77510    2.00000
  142     -1.74223    2.00000
  143     -1.68261    2.00000
  144      0.93017    1.99912
  145      0.94470    1.99899
  146      0.95943    1.99883
  147      1.00235    1.99820
  148      1.01163    1.99802
  149      1.02493    1.99774
  150      1.07310    1.99635
  151      1.07883    1.99613
  152      1.10192    1.99513
  153      1.12240    1.99402
  154      1.14433    1.99256
  155      1.14918    1.99220
  156      1.15612    1.99164
  157      1.17290    1.99012
  158      1.19408    1.98780
  159      1.20207    1.98679
  160      1.24409    1.97996
  161      1.27528    1.97273
  162      1.27999    1.97143
  163      1.29444    1.96706
  164      1.31752    1.95869
  165      1.32148    1.95706
  166      1.32415    1.95592
  167      1.33347    1.95172
  168      1.35292    1.94165
  169      1.36591    1.93383
  170      1.36839    1.93222
  171      1.37868    1.92516
  172      1.39189    1.91503
  173      1.39344    1.91377
  174      1.39953    1.90859
  175      1.41812    1.89093
  176      1.43110    1.87676
  177      1.48231    1.80247
  178      1.49066    1.78710
  179      1.50745    1.75298
  180      1.52548    1.71123
  181      1.53540    1.68583
  182      1.56513    1.59887
  183      1.57326    1.57218
  184      1.58176    1.54291
  185      1.59463    1.49595
  186      1.62483    1.37384
  187      1.64879    1.26652
  188      1.70675    0.98329
  189      1.72173    0.90865
  190      1.75197    0.76185
  191      1.78834    0.59915
  192      1.81531    0.49239
  193      1.83246    0.43155
  194      1.84091    0.40365
  195      1.86750    0.32470
  196      1.94676    0.16131
  197      1.98439    0.11359
  198      2.00535    0.09311
  199      2.03079    0.07297
  200      2.05601    0.05716
  201      2.07269    0.04860
  202      2.08156    0.04456
  203      2.14577    0.02370
  204      2.24244    0.00908
  205      2.27997    0.00625
  206      2.34979    0.00311
  207      2.37811    0.00235
  208      2.41515    0.00162
  209      2.56639    0.00036
  210      2.57388    0.00033
  211      2.61788    0.00021
  212      2.64930    0.00016
  213      2.67319    0.00012
  214      2.71912    0.00008
  215      2.84789    0.00002
  216      2.85678    0.00002
  217      2.86502    0.00002
  218      2.95576    0.00001
  219      2.96503    0.00001
  220      3.01751    0.00000
  221      3.05063    0.00000
  222      3.12413    0.00000
  223      3.15066    0.00000
  224      5.01888    0.00000
  225      5.86713    0.00000
  226      6.29324    0.00000
  227      6.94003    0.00000
  228      7.52121    0.00000
  229      7.84230    0.00000
  230      7.87374    0.00000
  231      8.08120    0.00000
  232      8.42259    0.00000
  233      8.58970    0.00000
  234      8.74656    0.00000
  235      9.04708    0.00000
  236      9.99078    0.00000
  237     10.19966    0.00000
  238     10.20826    0.00000
  239     10.27345    0.00000
  240     10.58145    0.00000
  241     10.86855    0.00000
  242     10.95399    0.00000
  243     10.97484    0.00000
  244     11.05330    0.00000
  245     11.09996    0.00000
  246     11.20211    0.00000
  247     11.35414    0.00000
  248     11.43302    0.00000
  249     11.52312    0.00000
  250     11.72045    0.00000
  251     11.74340    0.00000
  252     11.91893    0.00000
  253     12.00549    0.00000
  254     12.04998    0.00000
  255     12.12242    0.00000
  256     12.19748    0.00000
  257     12.25105    0.00000
  258     12.37413    0.00000
  259     12.42895    0.00000
  260     12.52333    0.00000
  261     12.54011    0.00000
  262     12.63402    0.00000
  263     12.64281    0.00000
  264     12.67623    0.00000
  265     12.70814    0.00000
  266     12.77443    0.00000
  267     12.81972    0.00000
  268     12.83972    0.00000
  269     12.88857    0.00000
  270     13.01114    0.00000
  271     13.15428    0.00000
  272     13.19215    0.00000
  273     13.24193    0.00000
  274     13.40535    0.00000
  275     13.45977    0.00000
  276     13.48969    0.00000
  277     13.52444    0.00000
  278     13.56038    0.00000
  279     13.70233    0.00000
  280     13.82733    0.00000
  281     14.16940    0.00000
  282     14.26028    0.00000
  283     14.40056    0.00000
  284     14.53760    0.00000
  285     14.60863    0.00000
  286     14.62119    0.00000
  287     14.70676    0.00000

Timing:                              incl.     excl.
-----------------------------------------------------------
Hamiltonian:                         6.862     0.000   0.0% |
 Atomic:                             3.353     0.005   0.0% |
  XC Correction:                     3.348     3.348   0.1% |
 Calculate atomic Hamiltonians:      0.058     0.058   0.0% |
 Communicate:                        0.000     0.000   0.0% |
 Hartree integrate/restrict:         0.020     0.020   0.0% |
 Initialize Hamiltonian:             0.000     0.000   0.0% |
 Poisson:                            2.779     2.779   0.0% |
 XC 3D grid:                         0.646     0.646   0.0% |
 vbar:                               0.007     0.007   0.0% |
LCAO initialization:                28.983     0.413   0.0% |
 LCAO eigensolver:                   3.096     0.000   0.0% |
  Calculate projections:             0.034     0.034   0.0% |
  DenseAtomicCorrection:             0.022     0.022   0.0% |
  Distribute overlap matrix:         0.000     0.000   0.0% |
  Orbital Layouts:                   0.061     0.061   0.0% |
  Potential matrix:                  2.979     2.979   0.0% |
 LCAO to grid:                      23.634    23.634   0.4% |
 Set positions (LCAO WFS):           1.840     0.000   0.0% |
  Basic WFS set positions:           0.001     0.001   0.0% |
  Basis functions set positions:     0.000     0.000   0.0% |
  TCI: Calculate S, T, P:            1.838     1.838   0.0% |
SCF-cycle:                        6292.384     0.141   0.0% |
 Davidson:                        5411.593   926.071  14.6% |-----|
  Apply hamiltonian:               122.381   122.381   1.9% ||
  Subspace diag:                  1549.023     0.037   0.0% |
   calc_h_matrix:                  600.429   477.622   7.5% |--|
    Apply hamiltonian:             122.807   122.807   1.9% ||
   diagonalize:                      3.953     3.953   0.1% |
   rotate_psi:                     944.605   944.605  14.9% |-----|
  calc. matrices:                 1849.217  1727.016  27.3% |----------|
   Apply hamiltonian:              122.201   122.201   1.9% ||
  diagonalize:                      17.484    17.484   0.3% |
  rotate_psi:                      947.418   947.418  15.0% |-----|
 Density:                           21.187     0.005   0.0% |
  Atomic density matrices:           1.077     1.077   0.0% |
  Mix:                              10.790    10.790   0.2% |
  Multipole moments:                 0.205     0.205   0.0% |
  Pseudo density:                    9.110     9.107   0.1% |
   Symmetrize density:               0.003     0.003   0.0% |
 Hamiltonian:                      853.797     0.023   0.0% |
  Atomic:                          416.845     0.877   0.0% |
   XC Correction:                  415.968   415.968   6.6% |--|
  Calculate atomic Hamiltonians:     6.705     6.705   0.1% |
  Communicate:                       0.002     0.002   0.0% |
  Hartree integrate/restrict:        3.976     3.976   0.1% |
  Poisson:                         307.255   307.255   4.9% |-|
  XC 3D grid:                      117.666   117.666   1.9% ||
  vbar:                              1.325     1.325   0.0% |
 Orthonormalize:                     5.665     0.000   0.0% |
  calc_s_matrix:                     1.571     1.571   0.0% |
  inverse-cholesky:                  0.004     0.004   0.0% |
  projections:                       1.258     1.258   0.0% |
  rotate_psi_s:                      2.832     2.832   0.0% |
Set symmetry:                        0.001     0.001   0.0% |
Other:                               1.314     1.314   0.0% |
-----------------------------------------------------------
Total:                                      6329.543 100.0%

Memory usage: 1.07 GiB
Date: Wed Mar 27 01:16:16 2019
