
  ___ ___ ___ _ _ _  
 |   |   |_  | | | | 
 | | | | | . | | | | 
 |__ |  _|___|_____|  1.4.0
 |___|_|             

User:   murakami@tssm1.eng.shizuoka.ac.jp
Date:   Tue Mar 26 21:10:15 2019
Arch:   x86_64
Pid:    31289
Python: 3.6.5
gpaw:   /home/murakami/.local/lib/python3.6/site-packages/gpaw
_gpaw:  /home/murakami/.local/lib/python3.6/site-packages/
        _gpaw.cpython-36m-x86_64-linux-gnu.so
ase:    /home/murakami/.local/lib/python3.6/site-packages/ase (version 3.16.2)
numpy:  /home/murakami/.local/lib/python3.6/site-packages/numpy (version 1.15.2)
scipy:  /home/murakami/.local/lib/python3.6/site-packages/scipy (version 1.1.0)
units:  Angstrom and eV
cores:  1

Input parameters:
  kpts: {size: (1, 1, 1)}
  maxiter: 300
  xc: PBE

System changes: positions, numbers, cell, pbc, initial_charges, initial_magmoms 

Initialize ...

Fe-setup:
  name: Iron
  id: 37abbd8d6c3c35915a9b583b742da910
  Z: 26
  valence: 8
  core: 18
  charge: 0.0
  file: /home/murakami/Public/gpaw-setups-0.9.20000/Fe.PBE.gz
  cutoffs: 1.06(comp), 2.06(filt), 2.67(core), lmax=2
  valence states:
                energy  radius
    4s(2.00)    -5.291   1.164
    4p(0.00)    -1.326   1.058
    3d(6.00)    -7.505   1.058
    *s          21.920   1.164
    *p          25.885   1.058
    *d          19.706   1.058

  Using partial waves for Fe as LCAO basis

O-setup:
  name: Oxygen
  id: 32ecd46bf208036f09c70b0ec9a88b78
  Z: 8
  valence: 6
  core: 2
  charge: 0.0
  file: /home/murakami/Public/gpaw-setups-0.9.20000/O.PBE.gz
  cutoffs: 0.67(comp), 1.17(filt), 0.83(core), lmax=2
  valence states:
                energy  radius
    2s(2.00)   -23.961   0.688
    2p(4.00)    -9.029   0.598
    *s           3.251   0.688
    *p          18.182   0.598
    *d           0.000   0.619

  Using partial waves for O as LCAO basis

F-setup:
  name: Fluorine
  id: 9cd46ba2a61e170ad72278be75b55cc0
  Z: 9
  valence: 7
  core: 2
  charge: 0.0
  file: /home/murakami/Public/gpaw-setups-0.9.20000/F.PBE.gz
  cutoffs: 0.64(comp), 1.14(filt), 0.74(core), lmax=2
  valence states:
                energy  radius
    2s(2.00)   -29.898   0.635
    2p(5.00)   -11.110   0.635
    *s          -2.687   0.635
    *p          16.102   0.635
    *d           0.000   0.635

  Using partial waves for F as LCAO basis

Reference energy: -319034.472395

Spin-paired calculation

Occupation numbers:
  Fermi-Dirac: width=0.1000 eV

Convergence criteria:
  Maximum total energy change: 0.0005 eV / electron
  Maximum integral of absolute density change: 0.0001 electrons
  Maximum integral of absolute eigenstate change: 4e-08 eV^2
  Maximum number of iterations: 300

Symmetries present (total): 1

  ( 1  0  0)
  ( 0  1  0)
  ( 0  0  1)

1 k-point (Gamma)
1 k-point in the irreducible part of the Brillouin zone
       k-points in crystal coordinates                weights
   0:     0.00000000    0.00000000    0.00000000          1/1

Wave functions: Uniform real-space grid
  Kinetic energy operator: 8*3+1=25 point O(h^6) finite-difference Laplacian
  ScaLapack parameters: grid=1x1, blocksize=None 

Eigensolver
   Davidson(niter=1, smin=None, normalize=True) 

Densities:
  Coarse grid: 28*24*52 grid
  Fine grid: 56*48*104 grid
  Total Charge: 0.000000 

Density mixing:
  Method: separate
  Backend: pulay
  Linear mixing parameter: 0.05
  Mixing with 5 old densities
  Damping of long wave oscillations: 50 

Hamiltonian:
  XC and Coulomb potentials evaluated on a 56*48*104 grid
  Using the PBE Exchange-Correlation functional
  Interpolation: tri-quintic (5. degree polynomial)
  Poisson solver: Jacobi solver with 4 multi-grid levels
    Coarsest grid: 7 x 6 x 13 points
    Stencil: 8*3+1=25 point O(h^6) finite-difference Laplacian
    Max iterations: 1000
    Tolerance: 2.000000e-10 

Memory estimate:
  Process memory now: 357.29 MiB
  Calculator: 140.46 MiB
    Density: 46.49 MiB
      Arrays: 6.93 MiB
      Localized functions: 36.90 MiB
      Mixer: 2.67 MiB
    Hamiltonian: 12.49 MiB
      Arrays: 4.53 MiB
      XC: 0.00 MiB
      Poisson: 5.17 MiB
      vbar: 2.79 MiB
    Wavefunctions: 81.47 MiB
      Arrays psit_nG: 36.26 MiB
      Eigensolver: 39.01 MiB
      Projections: 0.37 MiB
      Projectors: 5.84 MiB

Total number of cores used: 1

Number of atoms: 24
Number of atomic orbitals: 136
Number of bands in calculation: 136
Bands to converge: occupied states only
Number of valence electrons: 174

... initialized

Initializing position-dependent things.

Density initialized from atomic densities
Creating initial wave functions:
  136 bands from LCAO basis set

                                 
                                 
                                 
                                 
                 Fe              
                     O           
                      Fe         
          FF   F                 
                    FeF          
           Fe                    
           F       F             
              F        Fe        
               Fe                
                                 
             FeF  O   F          
                 F               
                  Fe             
       F    F     F              
                                 
                                 
                                 
                                 
                                 

Positions:
   0 Fe     1.416738    1.189211    7.931617    ( 0.0000,  0.0000,  0.0000)
   1 Fe     1.416738    3.596231    2.497057    ( 0.0000,  0.0000,  0.0000)
   2 Fe     2.953178    1.172318    5.032037    ( 0.0000,  0.0000,  0.0000)
   3 Fe     3.003872    3.613124   10.467209    ( 0.0000,  0.0000,  0.0000)
   4 Fe     4.323386    1.106753    2.301845    ( 0.0000,  0.0000,  0.0000)
   5 Fe     4.323386    3.678689    7.665671    ( 0.0000,  0.0000,  0.0000)
   6 Fe     5.681193    1.155072   10.082845    ( 0.0000,  0.0000,  0.0000)
   7 Fe     5.681193    3.630370    4.640862    ( 0.0000,  0.0000,  0.0000)
   8 O      4.431106    0.279843    3.945979    ( 0.0000,  0.0000,  0.0000)
   9 O      4.465826    4.505599    9.383297    ( 0.0000,  0.0000,  0.0000)
  10 F      0.078582    0.275431    1.978878    ( 0.0000,  0.0000,  0.0000)
  11 F      0.078582    4.510011    7.420861    ( 0.0000,  0.0000,  0.0000)
  12 F      1.274802    2.150774    6.041325    ( 0.0000,  0.0000,  0.0000)
  13 F      1.233871    2.662519    0.604842    ( 0.0000,  0.0000,  0.0000)
  14 F      1.601658    0.247632    9.820216    ( 0.0000,  0.0000,  0.0000)
  15 F      1.601658    4.537810    4.306377    ( 0.0000,  0.0000,  0.0000)
  16 F      2.763996    2.170342    3.066213    ( 0.0000,  0.0000,  0.0000)
  17 F      2.763996    2.615100    8.508196    ( 0.0000,  0.0000,  0.0000)
  18 F      2.997224    0.170362    6.934883    ( 0.0000,  0.0000,  0.0000)
  19 F      2.997224    4.615080    1.492900    ( 0.0000,  0.0000,  0.0000)
  20 F      4.143358    2.120047    0.519405    ( 0.0000,  0.0000,  0.0000)
  21 F      4.143358    2.665395    5.876732    ( 0.0000,  0.0000,  0.0000)
  22 F      5.583533    2.184578    8.170321    ( 0.0000,  0.0000,  0.0000)
  23 F      5.583533    2.600864    2.728338    ( 0.0000,  0.0000,  0.0000)

Unit cell:
           periodic     x           y           z      points  spacing
  1. axis:    yes    5.735919    0.000000   -0.770696    28     0.2049
  2. axis:    yes    0.000000    4.785442    0.000000    24     0.1994
  3. axis:    yes    0.000000    0.000000   10.883966    52     0.2074

  Lengths:   5.787464   4.785442  10.883966
  Angles:   90.000000  97.652608  90.000000

Effective grid spacing dv^(1/3) = 0.2045

                     log10-error:    total        iterations:
           time      wfs    density  energy       fermi  poisson
iter:   1  21:10:27  +1.56   +inf  -150.041521    3      17     
iter:   2  21:10:30  +0.20   +inf  -150.677428    3             
iter:   3  21:10:33  -0.39   +inf  -150.859487    2             
iter:   4  21:10:37  -0.64  -1.14  -149.129015    3      8      
iter:   5  21:10:42  -0.39  -1.18  -157.558081    4      12     
iter:   6  21:10:47  -0.29  -1.16  -147.880303    3      14     
iter:   7  21:10:51  -0.65  -1.36  -146.146098    4      13     
iter:   8  21:10:56  -1.39  -1.42  -145.862479    4      12     
iter:   9  21:11:01  -1.51  -1.43  -146.159559    4      12     
iter:  10  21:11:05  -1.45  -1.43  -145.998013    4      12     
iter:  11  21:11:10  -1.36  -1.44  -146.781779    4      14     
iter:  12  21:11:15  -1.36  -1.42  -145.688822    3      13     
iter:  13  21:11:19  -1.72  -1.49  -145.605614    4      11     
iter:  14  21:11:24  -1.42  -1.53  -146.424033    4      12     
iter:  15  21:11:28  -1.20  -1.53  -146.993319    3      14     
iter:  16  21:11:33  -1.48  -1.48  -147.349959    3      14     
iter:  17  21:11:38  -1.46  -1.49  -145.880536    4      13     
iter:  18  21:11:43  -1.32  -1.63  -146.573756    3      13     
iter:  19  21:11:48  -1.62  -1.54  -145.418974    3      12     
iter:  20  21:11:53  -2.35  -1.67  -145.342173    3      7      
iter:  21  21:11:58  -2.15  -1.71  -145.697471    3      12     
iter:  22  21:12:03  -1.84  -1.68  -145.857828    3      13     
iter:  23  21:12:07  -1.72  -1.70  -145.665374    3      11     
iter:  24  21:12:12  -1.66  -1.86  -145.945746    4      12     
iter:  25  21:12:17  -1.61  -1.87  -146.662620    3      13     
iter:  26  21:12:21  -1.54  -1.77  -145.564308    4      10     
iter:  27  21:12:26  -2.30  -1.94  -145.431156    3      10     
iter:  28  21:12:30  -2.77  -2.05  -145.395080    2      9      
iter:  29  21:12:36  -3.27  -2.11  -145.386871    3      6      
iter:  30  21:12:41  -2.70  -2.14  -145.415508    3      8      
iter:  31  21:12:46  -2.33  -2.19  -145.543414    3      11     
iter:  32  21:12:50  -2.21  -2.15  -145.689303    3      12     
iter:  33  21:12:55  -2.13  -2.07  -145.515230    3      11     
iter:  34  21:13:00  -2.47  -2.20  -145.452509    3      11     
iter:  35  21:13:04  -2.75  -2.28  -145.369858    3      9      
iter:  36  21:13:08  -3.34  -2.49  -145.369503    3      5      
iter:  37  21:13:13  -3.44  -2.54  -145.381459    3      7      
iter:  38  21:13:17  -3.34  -2.52  -145.381677    3      9      
iter:  39  21:13:22  -3.42  -2.52  -145.364567    2      7      
iter:  40  21:13:26  -3.05  -2.60  -145.373231    3      7      
iter:  41  21:13:31  -2.87  -2.62  -145.395576    2      6      
iter:  42  21:13:36  -3.11  -2.58  -145.371894    2      6      
iter:  43  21:13:40  -3.30  -2.68  -145.371311    3      7      
iter:  44  21:13:45  -3.37  -2.66  -145.369366    2      8      
iter:  45  21:13:50  -3.51  -2.69  -145.366487    2      8      
iter:  46  21:13:54  -3.87  -2.82  -145.367007    3      6      
iter:  47  21:13:59  -3.86  -2.89  -145.358831    2      5      
iter:  48  21:14:04  -3.96  -2.90  -145.362618    2      4      
iter:  49  21:14:08  -4.11  -2.93  -145.363420    3      4      
iter:  50  21:14:13  -4.03  -2.98  -145.364606    3      5      
iter:  51  21:14:18  -3.67  -2.96  -145.363594    3      7      
iter:  52  21:14:22  -3.74  -2.80  -145.358482    3      7      
iter:  53  21:14:27  -3.99  -3.05  -145.363790    3      5      
iter:  54  21:14:32  -3.98  -3.12  -145.359826    3      4      
iter:  55  21:14:36  -4.34  -3.09  -145.358711    2      4      
iter:  56  21:14:40  -4.81  -3.22  -145.358718    2      4      
iter:  57  21:14:45  -4.78  -3.26  -145.360717    2      5      
iter:  58  21:14:49  -4.83  -3.18  -145.359837    2      4      
iter:  59  21:14:53  -4.92  -3.29  -145.357881    2      4      
iter:  60  21:14:58  -4.48  -3.30  -145.359955    2      4      
iter:  61  21:15:02  -4.42  -3.26  -145.360046    2      4      
iter:  62  21:15:06  -4.64  -3.31  -145.359730    2      4      
iter:  63  21:15:11  -4.78  -3.35  -145.359412    2      5      
iter:  64  21:15:15  -4.69  -3.24  -145.358804    2      4      
iter:  65  21:15:19  -5.38  -3.42  -145.359119    2      3      
iter:  66  21:15:24  -5.31  -3.43  -145.359779    2      4      
iter:  67  21:15:28  -4.96  -3.45  -145.358583    2      4      
iter:  68  21:15:32  -4.76  -3.45  -145.359051    2      4      
iter:  69  21:15:37  -4.97  -3.43  -145.358410    2      5      
iter:  70  21:15:41  -4.73  -3.72  -145.361082    2      4      
iter:  71  21:15:45  -4.74  -3.35  -145.359650    2      5      
iter:  72  21:15:50  -5.18  -3.60  -145.358746    2      3      
iter:  73  21:15:54  -5.74  -4.02  -145.358927    2      3      
iter:  74  21:15:58  -5.77  -4.20  -145.359050    2      3      
iter:  75  21:16:02  -5.86  -3.96  -145.358977    2      2      
iter:  76  21:16:07  -6.64  -4.34  -145.358868    2      2      
iter:  77  21:16:11  -6.39  -4.35  -145.358779    2      2      
iter:  78  21:16:15  -6.48  -4.12  -145.359057    2      2      
iter:  79  21:16:19  -6.97  -4.37  -145.358938    1      2      
iter:  80  21:16:24  -6.89  -4.42  -145.358984    2      2      
iter:  81  21:16:28  -7.41  -4.41  -145.358803    2      1      

Converged after 81 iterations.

Dipole moment: (-1.542860, 2.939435, -1.978445) |e|*Ang

Energy contributions relative to reference atoms: (reference = -319034.472395)

Kinetic:       +117.776355
Potential:     -131.677387
External:        +0.000000
XC:            -138.461322
Entropy (-ST):   -1.213497
Local:           +7.610299
--------------------------
Free energy:   -145.965551
Extrapolated:  -145.358803

Fermi level: 3.68079

 Band  Eigenvalues  Occupancy
    0    -20.73639    2.00000
    1    -20.62518    2.00000
    2    -20.42543    2.00000
    3    -20.33480    2.00000
    4    -20.27902    2.00000
    5    -20.26009    2.00000
    6    -20.19550    2.00000
    7    -20.14807    2.00000
    8    -20.11928    2.00000
    9    -20.09352    2.00000
   10    -20.03423    2.00000
   11    -19.98846    2.00000
   12    -19.90720    2.00000
   13    -19.81688    2.00000
   14    -14.59105    2.00000
   15    -14.42815    2.00000
   16     -4.21465    2.00000
   17     -3.87698    2.00000
   18     -3.40409    2.00000
   19     -3.29918    2.00000
   20     -3.27930    2.00000
   21     -3.16918    2.00000
   22     -3.06571    2.00000
   23     -2.97092    2.00000
   24     -2.94962    2.00000
   25     -2.86847    2.00000
   26     -2.78588    2.00000
   27     -2.66557    2.00000
   28     -2.64099    2.00000
   29     -2.59808    2.00000
   30     -2.52705    2.00000
   31     -2.47885    2.00000
   32     -2.44681    2.00000
   33     -2.42599    2.00000
   34     -2.33466    2.00000
   35     -2.31877    2.00000
   36     -2.25953    2.00000
   37     -2.23562    2.00000
   38     -2.12025    2.00000
   39     -2.09648    2.00000
   40     -2.05009    2.00000
   41     -2.01394    2.00000
   42     -1.95993    2.00000
   43     -1.89100    2.00000
   44     -1.80572    2.00000
   45     -1.67533    2.00000
   46     -1.44242    2.00000
   47     -1.40889    2.00000
   48     -1.35696    2.00000
   49     -1.24969    2.00000
   50     -1.21123    2.00000
   51     -1.06738    2.00000
   52     -1.06236    2.00000
   53     -1.00644    2.00000
   54     -0.90305    2.00000
   55     -0.78037    2.00000
   56     -0.73575    2.00000
   57     -0.66605    2.00000
   58     -0.60097    2.00000
   59     -0.46350    2.00000
   60     -0.41222    2.00000
   61     -0.31312    2.00000
   62      0.42776    2.00000
   63      0.59372    2.00000
   64      2.90268    1.99917
   65      2.91512    1.99905
   66      2.98737    1.99805
   67      3.00808    1.99761
   68      3.01928    1.99732
   69      3.04180    1.99665
   70      3.06456    1.99579
   71      3.10433    1.99375
   72      3.14476    1.99064
   73      3.15003    1.99014
   74      3.21380    1.98143
   75      3.21576    1.98106
   76      3.25658    1.97165
   77      3.27757    1.96515
   78      3.30648    1.95373
   79      3.36487    1.91854
   80      3.37378    1.91128
   81      3.37669    1.90878
   82      3.41936    1.86356
   83      3.47400    1.77548
   84      3.55717    1.54979
   85      3.57972    1.46631
   86      3.60523    1.36079
   87      3.70851    0.86226
   88      3.71729    0.81948
   89      3.84104    0.33526
   90      3.94048    0.13868
   91      3.95027    0.12656
   92      4.00829    0.07288
   93      4.06537    0.04184
   94      4.13017    0.02211
   95      4.18040    0.01344
   96      4.45124    0.00090
   97      4.46138    0.00081
   98      4.83270    0.00002
   99      4.93201    0.00001
  100      4.99327    0.00000
  101      5.01940    0.00000
  102      5.14837    0.00000
  103      5.27954    0.00000
  104      6.19846    0.00000
  105      7.93232    0.00000
  106      8.53401    0.00000
  107     10.92083    0.00000
  108     11.23098    0.00000
  109     11.32686    0.00000
  110     11.49515    0.00000
  111     11.65272    0.00000
  112     11.93690    0.00000
  113     12.08223    0.00000
  114     12.21310    0.00000
  115     12.84101    0.00000
  116     13.21014    0.00000
  117     13.29607    0.00000
  118     13.65637    0.00000
  119     14.03033    0.00000
  120     14.53503    0.00000
  121     14.96959    0.00000
  122     15.07017    0.00000
  123     15.16610    0.00000
  124     15.37315    0.00000
  125     15.68312    0.00000
  126     15.78330    0.00000
  127     15.79831    0.00000
  128     15.88594    0.00000
  129     15.99502    0.00000
  130     16.07549    0.00000
  131     16.17642    0.00000
  132     16.27019    0.00000
  133     16.27582    0.00000
  134     16.32982    0.00000
  135     16.48312    0.00000

Timing:                              incl.     excl.
-----------------------------------------------------------
Hamiltonian:                         1.927     0.000   0.0% |
 Atomic:                             1.067     0.002   0.0% |
  XC Correction:                     1.064     1.064   0.3% |
 Calculate atomic Hamiltonians:      0.012     0.012   0.0% |
 Communicate:                        0.000     0.000   0.0% |
 Hartree integrate/restrict:         0.005     0.005   0.0% |
 Initialize Hamiltonian:             0.000     0.000   0.0% |
 Poisson:                            0.622     0.622   0.2% |
 XC 3D grid:                         0.219     0.219   0.1% |
 vbar:                               0.002     0.002   0.0% |
LCAO initialization:                 5.784     0.229   0.1% |
 LCAO eigensolver:                   0.953     0.000   0.0% |
  Calculate projections:             0.003     0.003   0.0% |
  DenseAtomicCorrection:             0.003     0.003   0.0% |
  Distribute overlap matrix:         0.000     0.000   0.0% |
  Orbital Layouts:                   0.009     0.009   0.0% |
  Potential matrix:                  0.938     0.938   0.3% |
 LCAO to grid:                       3.974     3.974   1.1% |
 Set positions (LCAO WFS):           0.628     0.000   0.0% |
  Basic WFS set positions:           0.001     0.001   0.0% |
  Basis functions set positions:     0.000     0.000   0.0% |
  TCI: Calculate S, T, P:            0.627     0.627   0.2% |
SCF-cycle:                         364.070     0.054   0.0% |
 Davidson:                         236.418    62.294  16.7% |------|
  Apply hamiltonian:                 8.712     8.712   2.3% ||
  Subspace diag:                    59.717     0.012   0.0% |
   calc_h_matrix:                   25.505    16.664   4.5% |-|
    Apply hamiltonian:               8.841     8.841   2.4% ||
   diagonalize:                      0.332     0.332   0.1% |
   rotate_psi:                      33.868    33.868   9.1% |---|
  calc. matrices:                   70.328    61.607  16.5% |------|
   Apply hamiltonian:                8.721     8.721   2.3% ||
  diagonalize:                       1.351     1.351   0.4% |
  rotate_psi:                       34.017    34.017   9.1% |---|
 Density:                            2.360     0.002   0.0% |
  Atomic density matrices:           0.188     0.188   0.1% |
  Mix:                               1.511     1.511   0.4% |
  Multipole moments:                 0.046     0.046   0.0% |
  Pseudo density:                    0.614     0.612   0.2% |
   Symmetrize density:               0.001     0.001   0.0% |
 Hamiltonian:                      124.621     0.008   0.0% |
  Atomic:                           83.985     0.197   0.1% |
   XC Correction:                   83.788    83.788  22.5% |--------|
  Calculate atomic Hamiltonians:     0.999     0.999   0.3% |
  Communicate:                       0.001     0.001   0.0% |
  Hartree integrate/restrict:        0.440     0.440   0.1% |
  Poisson:                          21.825    21.825   5.9% |-|
  XC 3D grid:                       17.194    17.194   4.6% |-|
  vbar:                              0.169     0.169   0.0% |
 Orthonormalize:                     0.617     0.000   0.0% |
  calc_s_matrix:                     0.145     0.145   0.0% |
  inverse-cholesky:                  0.001     0.001   0.0% |
  projections:                       0.252     0.252   0.1% |
  rotate_psi_s:                      0.218     0.218   0.1% |
Set symmetry:                        0.001     0.001   0.0% |
Other:                               0.828     0.828   0.2% |
-----------------------------------------------------------
Total:                                       372.611 100.0%

Memory usage: 357.29 MiB
Date: Tue Mar 26 21:16:28 2019
