
  ___ ___ ___ _ _ _  
 |   |   |_  | | | | 
 | | | | | . | | | | 
 |__ |  _|___|_____|  1.4.0
 |___|_|             

User:   murakami@tssm1.eng.shizuoka.ac.jp
Date:   Fri Mar 29 14:14:40 2019
Arch:   x86_64
Pid:    31289
Python: 3.6.5
gpaw:   /home/murakami/.local/lib/python3.6/site-packages/gpaw
_gpaw:  /home/murakami/.local/lib/python3.6/site-packages/
        _gpaw.cpython-36m-x86_64-linux-gnu.so
ase:    /home/murakami/.local/lib/python3.6/site-packages/ase (version 3.16.2)
numpy:  /home/murakami/.local/lib/python3.6/site-packages/numpy (version 1.15.2)
scipy:  /home/murakami/.local/lib/python3.6/site-packages/scipy (version 1.1.0)
units:  Angstrom and eV
cores:  1

Input parameters:
  kpts: {size: (1, 1, 1)}
  maxiter: 300
  xc: PBE

System changes: positions, numbers, cell, pbc, initial_charges, initial_magmoms 

Initialize ...

Fe-setup:
  name: Iron
  id: 37abbd8d6c3c35915a9b583b742da910
  Z: 26
  valence: 8
  core: 18
  charge: 0.0
  file: /home/murakami/Public/gpaw-setups-0.9.20000/Fe.PBE.gz
  cutoffs: 1.06(comp), 2.06(filt), 2.67(core), lmax=2
  valence states:
                energy  radius
    4s(2.00)    -5.291   1.164
    4p(0.00)    -1.326   1.058
    3d(6.00)    -7.505   1.058
    *s          21.920   1.164
    *p          25.885   1.058
    *d          19.706   1.058

  Using partial waves for Fe as LCAO basis

O-setup:
  name: Oxygen
  id: 32ecd46bf208036f09c70b0ec9a88b78
  Z: 8
  valence: 6
  core: 2
  charge: 0.0
  file: /home/murakami/Public/gpaw-setups-0.9.20000/O.PBE.gz
  cutoffs: 0.67(comp), 1.17(filt), 0.83(core), lmax=2
  valence states:
                energy  radius
    2s(2.00)   -23.961   0.688
    2p(4.00)    -9.029   0.598
    *s           3.251   0.688
    *p          18.182   0.598
    *d           0.000   0.619

  Using partial waves for O as LCAO basis

F-setup:
  name: Fluorine
  id: 9cd46ba2a61e170ad72278be75b55cc0
  Z: 9
  valence: 7
  core: 2
  charge: 0.0
  file: /home/murakami/Public/gpaw-setups-0.9.20000/F.PBE.gz
  cutoffs: 0.64(comp), 1.14(filt), 0.74(core), lmax=2
  valence states:
                energy  radius
    2s(2.00)   -29.898   0.635
    2p(5.00)   -11.110   0.635
    *s          -2.687   0.635
    *p          16.102   0.635
    *d           0.000   0.635

  Using partial waves for F as LCAO basis

Reference energy: -648925.267931

Spin-paired calculation

Occupation numbers:
  Fermi-Dirac: width=0.1000 eV

Convergence criteria:
  Maximum total energy change: 0.0005 eV / electron
  Maximum integral of absolute density change: 0.0001 electrons
  Maximum integral of absolute eigenstate change: 4e-08 eV^2
  Maximum number of iterations: 300

Symmetries present (total): 1

  ( 1  0  0)
  ( 0  1  0)
  ( 0  0  1)

1 k-point (Gamma)
1 k-point in the irreducible part of the Brillouin zone
       k-points in crystal coordinates                weights
   0:     0.00000000    0.00000000    0.00000000          1/1

Wave functions: Uniform real-space grid
  Kinetic energy operator: 8*3+1=25 point O(h^6) finite-difference Laplacian
  ScaLapack parameters: grid=1x1, blocksize=None 

Eigensolver
   Davidson(niter=1, smin=None, normalize=True) 

Densities:
  Coarse grid: 48*28*76 grid
  Fine grid: 96*56*152 grid
  Total Charge: 0.000000 

Density mixing:
  Method: separate
  Backend: pulay
  Linear mixing parameter: 0.05
  Mixing with 5 old densities
  Damping of long wave oscillations: 50 

Hamiltonian:
  XC and Coulomb potentials evaluated on a 96*56*152 grid
  Using the PBE Exchange-Correlation functional
  Interpolation: tri-quintic (5. degree polynomial)
  Poisson solver: Jacobi solver with 4 multi-grid levels
    Coarsest grid: 12 x 7 x 19 points
    Stencil: 8*3+1=25 point O(h^6) finite-difference Laplacian
    Max iterations: 1000
    Tolerance: 2.000000e-10 

Memory estimate:
  Process memory now: 1103.97 MiB
  Calculator: 625.81 MiB
    Density: 116.13 MiB
      Arrays: 20.26 MiB
      Localized functions: 88.08 MiB
      Mixer: 7.79 MiB
    Hamiltonian: 35.03 MiB
      Arrays: 13.25 MiB
      XC: 0.00 MiB
      Poisson: 15.10 MiB
      vbar: 6.68 MiB
    Wavefunctions: 474.64 MiB
      Arrays psit_nG: 224.44 MiB
      Eigensolver: 234.67 MiB
      Projections: 1.66 MiB
      Projectors: 13.87 MiB

Total number of cores used: 1

Number of atoms: 52
Number of atomic orbitals: 288
Number of bands in calculation: 288
Bands to converge: occupied states only
Number of valence electrons: 376

... initialized

Initializing position-dependent things.

Density initialized from atomic densities
Creating initial wave functions:
  288 bands from LCAO basis set

                                           
                                           
                                           
                                           
                          Fe               
              F       F                    
             Fe              O             
               O        F       F          
                            Fe             
         F       F       F                 
               Fe                          
            FFe    F       F               
              F        F     F             
         F     F       Fe                  
                        F   Fe             
             Fe  O        F     F          
               Fe Fe                       
            F      F   Fe  O               
              F       F     Fe             
                          Fe               
         F   FeF        F                  
                         F                 
          F     F Fe                       
            F                              
                    F     F Fe             
                                           
                                           
                                           
                                           
                                           

Positions:
   0 Fe     1.542848    2.593853    2.677597    ( 0.0000,  0.0000,  0.0000)
   1 Fe     1.542848    2.765614   10.013120    ( 0.0000,  0.0000,  0.0000)
   2 Fe     6.243444    5.273587    2.635533    ( 0.0000,  0.0000,  0.0000)
   3 Fe     6.243444    0.085880   10.113358    ( 0.0000,  0.0000,  0.0000)
   4 Fe     1.697150    2.534235   14.537140    ( 0.0000,  0.0000,  0.0000)
   5 Fe     1.610433    2.825232    7.013922    ( 0.0000,  0.0000,  0.0000)
   6 Fe     6.348925    5.213968   14.495512    ( 0.0000,  0.0000,  0.0000)
   7 Fe     6.348925    0.145499    7.017686    ( 0.0000,  0.0000,  0.0000)
   8 Fe     3.117708    0.157643   12.271643    ( 0.0000,  0.0000,  0.0000)
   9 Fe     3.117708    5.201824    4.793817    ( 0.0000,  0.0000,  0.0000)
  10 Fe     7.818303    2.837377   12.229578    ( 0.0000,  0.0000,  0.0000)
  11 Fe     7.839164    2.522090    4.751566    ( 0.0000,  0.0000,  0.0000)
  12 Fe     3.136416    0.023153    7.705724    ( 0.0000,  0.0000,  0.0000)
  13 Fe     3.136416    5.336314    0.227899    ( 0.0000,  0.0000,  0.0000)
  14 Fe     7.837011    2.702886    7.663660    ( 0.0000,  0.0000,  0.0000)
  15 Fe     7.837011    2.656581    0.185834    ( 0.0000,  0.0000,  0.0000)
  16 O      2.907450    1.433164   13.814659    ( 0.0000,  0.0000,  0.0000)
  17 O      2.907450    3.926303    6.336834    ( 0.0000,  0.0000,  0.0000)
  18 O      7.608045    4.136860   13.772595    ( 0.0000,  0.0000,  0.0000)
  19 O      7.608045    1.246569    6.294769    ( 0.0000,  0.0000,  0.0000)
  20 F      0.036298    1.976797    3.648091    ( 0.0000,  0.0000,  0.0000)
  21 F      0.036298    3.382670   11.125917    ( 0.0000,  0.0000,  0.0000)
  22 F      4.736893    4.656530    3.721589    ( 0.0000,  0.0000,  0.0000)
  23 F      4.736893    0.702937   11.083852    ( 0.0000,  0.0000,  0.0000)
  24 F      0.197293    2.119010    8.517497    ( 0.0000,  0.0000,  0.0000)
  25 F      0.243622    3.240457    1.181694    ( 0.0000,  0.0000,  0.0000)
  26 F      4.944218    4.798743    8.617455    ( 0.0000,  0.0000,  0.0000)
  27 F      4.944218    0.560724    1.139630    ( 0.0000,  0.0000,  0.0000)
  28 F      1.655719    1.147837    1.234055    ( 0.0000,  0.0000,  0.0000)
  29 F      1.655719    4.211630    8.711881    ( 0.0000,  0.0000,  0.0000)
  30 F      6.356314    3.827571    1.191991    ( 0.0000,  0.0000,  0.0000)
  31 F      6.356314    1.531896    8.669816    ( 0.0000,  0.0000,  0.0000)
  32 F      1.706072    1.090357   11.043749    ( 0.0000,  0.0000,  0.0000)
  33 F      1.706072    4.269110    3.565923    ( 0.0000,  0.0000,  0.0000)
  34 F      6.406667    3.744268   11.001684    ( 0.0000,  0.0000,  0.0000)
  35 F      6.406667    1.589377    3.523859    ( 0.0000,  0.0000,  0.0000)
  36 F      1.776853    1.081862    6.320255    ( 0.0000,  0.0000,  0.0000)
  37 F      1.776853    4.277605   13.769456    ( 0.0000,  0.0000,  0.0000)
  38 F      6.477449    3.761596    6.278191    ( 0.0000,  0.0000,  0.0000)
  39 F      6.477449    1.597871   13.756016    ( 0.0000,  0.0000,  0.0000)
  40 F      2.759033    1.859028    8.623789    ( 0.0000,  0.0000,  0.0000)
  41 F      2.759033    3.541112    1.145964    ( 0.0000,  0.0000,  0.0000)
  42 F      7.459629    4.538761    8.581725    ( 0.0000,  0.0000,  0.0000)
  43 F      7.459629    0.820706    1.103899    ( 0.0000,  0.0000,  0.0000)
  44 F      2.849557    1.637912    3.683786    ( 0.0000,  0.0000,  0.0000)
  45 F      2.849557    3.721555   11.161611    ( 0.0000,  0.0000,  0.0000)
  46 F      7.580331    4.317646    3.602806    ( 0.0000,  0.0000,  0.0000)
  47 F      7.550153    1.041821   11.056808    ( 0.0000,  0.0000,  0.0000)
  48 F      4.613296    0.721642    6.308497    ( 0.0000,  0.0000,  0.0000)
  49 F      4.613296    4.637825   13.762110    ( 0.0000,  0.0000,  0.0000)
  50 F      9.313892    3.401375    6.242220    ( 0.0000,  0.0000,  0.0000)
  51 F      9.313892    1.976577   13.720045    ( 0.0000,  0.0000,  0.0000)

Unit cell:
           periodic     x           y           z      points  spacing
  1. axis:    yes    9.401191    0.000000   -0.084129    48     0.1959
  2. axis:    yes    0.000000    5.359467    0.000000    28     0.1914
  3. axis:    yes    0.000000    0.000000   14.955651    76     0.1968

  Lengths:   9.401567   5.359467  14.955651
  Angles:   90.000000  90.512712  90.000000

Effective grid spacing dv^(1/3) = 0.1947

                     log10-error:    total        iterations:
           time      wfs    density  energy       fermi  poisson
iter:   1  14:15:43  +1.49   +inf  -311.574906    3      19     
iter:   2  14:16:12  +0.30   +inf  -313.144110    3             
iter:   3  14:16:41  -0.29   +inf  -313.573148    2             
iter:   4  14:17:14  -0.47  -1.13  -310.427125    4      17     
iter:   5  14:17:49  -0.43  -1.16  -327.054968    3      28     
iter:   6  14:18:25  -0.13  -1.12  -327.083118    35     34     
iter:   7  14:19:01  -0.25  -1.23  -318.024994    4      35     
iter:   8  14:19:37  -0.58  -1.27  -305.163349    4      32     
iter:   9  14:20:11  -0.95  -1.39  -303.952590    4      27     
iter:  10  14:20:44  -1.20  -1.39  -300.900807    3      24     
iter:  11  14:21:17  -1.64  -1.43  -301.630797    3      23     
iter:  12  14:21:51  -1.43  -1.44  -302.861079    4      28     
iter:  13  14:22:25  -1.45  -1.41  -304.232023    4      30     
iter:  14  14:22:59  -1.30  -1.39  -302.768697    3      27     
iter:  15  14:23:35  -1.39  -1.44  -301.840721    4      20     
iter:  16  14:24:09  -1.31  -1.48  -303.143422    4      27     
iter:  17  14:24:44  -1.47  -1.43  -303.033396    4      28     
iter:  18  14:25:20  -1.46  -1.47  -301.791933    3      29     
iter:  19  14:25:54  -1.72  -1.48  -301.395725    3      28     
iter:  20  14:26:28  -1.89  -1.51  -301.364121    3      27     
iter:  21  14:27:05  -1.81  -1.52  -300.309106    3      25     
iter:  22  14:27:39  -1.82  -1.57  -302.193995    3      26     
iter:  23  14:28:24  -1.67  -1.49  -300.838874    3      23     
iter:  24  14:29:11  -1.82  -1.58  -300.316561    3      26     
iter:  25  14:30:01  -1.73  -1.60  -302.535614    3      25     
iter:  26  14:30:36  -1.60  -1.54  -302.652354    3      28     
iter:  27  14:31:11  -1.70  -1.52  -300.870350    4      29     
iter:  28  14:31:44  -1.88  -1.60  -300.589287    3      23     
iter:  29  14:32:17  -1.91  -1.63  -300.312159    3      19     
iter:  30  14:32:51  -1.88  -1.67  -301.206189    3      26     
iter:  31  14:33:25  -2.00  -1.60  -300.053475    3      25     
iter:  32  14:34:01  -1.84  -1.68  -302.424492    4      27     
iter:  33  14:34:35  -1.77  -1.58  -299.874738    4      28     
iter:  34  14:35:07  -2.17  -1.71  -300.289125    3      13     
iter:  35  14:35:40  -2.11  -1.69  -299.932735    3      21     
iter:  36  14:36:14  -2.11  -1.74  -301.185909    3      26     
iter:  37  14:36:48  -1.74  -1.68  -301.598195    2      28     
iter:  38  14:37:23  -1.69  -1.64  -301.127534    3      23     
iter:  39  14:37:58  -1.42  -1.76  -307.458450    3      30     
iter:  40  14:38:39  -1.55  -1.48  -300.677124    4      30     
iter:  41  14:39:20  -1.96  -1.73  -299.759379    3      23     
iter:  42  14:39:59  -2.63  -1.83  -299.807814    3      15     
iter:  43  14:40:33  -2.52  -1.85  -300.099335    3      20     
iter:  44  14:41:06  -2.14  -1.81  -300.953408    3      25     
iter:  45  14:41:42  -1.72  -1.78  -306.969306    3      29     
iter:  46  14:42:16  -1.64  -1.50  -300.231597    4      29     
iter:  47  14:42:49  -1.89  -1.84  -300.625156    3      21     
iter:  48  14:43:23  -2.12  -1.78  -299.992542    3      22     
iter:  49  14:43:57  -2.25  -1.86  -300.513754    3      17     
iter:  50  14:44:34  -2.32  -1.82  -299.773287    3      23     
iter:  51  14:45:22  -1.98  -1.92  -305.342416    3      29     
iter:  52  14:46:13  -1.67  -1.55  -300.217256    3      28     
iter:  53  14:47:05  -2.04  -1.85  -300.421840    3      22     
iter:  54  14:47:54  -2.29  -1.82  -299.754558    3      21     
iter:  55  14:48:37  -2.51  -1.94  -299.951031    3      12     
iter:  56  14:49:24  -2.50  -1.91  -299.678692    3      15     
iter:  57  14:50:02  -2.06  -1.97  -304.015496    3      28     
iter:  58  14:50:36  -1.81  -1.59  -299.758153    4      28     
iter:  59  14:51:09  -2.30  -1.97  -300.406233    3      21     
iter:  60  14:51:42  -2.29  -1.85  -299.875736    3      24     
iter:  61  14:52:15  -2.58  -1.94  -299.934790    3      21     
iter:  62  14:52:50  -2.62  -1.95  -299.616087    3      14     
iter:  63  14:53:24  -2.55  -2.04  -300.328804    3      23     
iter:  64  14:54:04  -2.11  -1.92  -300.174928    3      18     
iter:  65  14:54:43  -2.23  -1.92  -300.395510    3      25     
iter:  66  14:55:16  -2.29  -1.88  -299.696097    3      22     
iter:  67  14:55:52  -2.43  -2.06  -301.039031    3      24     
iter:  68  14:56:26  -2.23  -1.84  -299.805487    3      26     
iter:  69  14:56:59  -2.36  -2.02  -300.704489    3      23     
iter:  70  14:57:33  -2.16  -1.87  -299.969005    3      20     
iter:  71  14:58:10  -2.32  -2.00  -300.601702    3      25     
iter:  72  14:58:44  -2.35  -1.87  -299.636802    3      24     
iter:  73  14:59:22  -2.44  -2.13  -300.230109    3      22     
iter:  74  14:59:59  -2.32  -1.99  -299.656046    3      20     
iter:  75  15:00:33  -2.77  -2.15  -299.884167    3      20     
iter:  76  15:01:06  -2.70  -2.05  -299.691105    2      19     
iter:  77  15:01:43  -2.39  -2.14  -301.079198    3      25     
iter:  78  15:02:24  -2.21  -1.82  -299.655685    3      25     
iter:  79  15:03:04  -2.57  -2.17  -299.971574    3      15     
iter:  80  15:03:47  -2.58  -2.05  -299.608150    3      18     
iter:  81  15:04:28  -3.09  -2.21  -299.715733    3      14     
iter:  82  15:05:07  -2.96  -2.17  -299.653532    3      17     
iter:  83  15:05:49  -2.38  -2.19  -301.580497    3      26     
iter:  84  15:06:31  -2.18  -1.77  -299.648350    3      26     
iter:  85  15:07:06  -2.72  -2.20  -299.850041    3      21     
iter:  86  15:07:40  -2.76  -2.11  -299.622817    3      19     
iter:  87  15:08:13  -3.29  -2.25  -299.645594    3      9      
iter:  88  15:08:49  -3.48  -2.24  -299.593487    2      9      
iter:  89  15:09:32  -2.75  -2.29  -299.917501    3      21     
iter:  90  15:10:09  -2.32  -2.14  -299.889593    3      19     
iter:  91  15:10:55  -2.71  -2.15  -299.693409    2      21     
iter:  92  15:11:38  -3.01  -2.24  -299.687128    2      19     
iter:  93  15:12:15  -2.91  -2.26  -299.732281    3      18     
iter:  94  15:12:55  -2.78  -2.30  -299.609609    3      17     
iter:  95  15:13:32  -2.93  -2.38  -299.718807    3      14     
iter:  96  15:14:12  -2.72  -2.35  -299.684306    3      15     
iter:  97  15:14:53  -2.87  -2.36  -299.821026    3      22     
iter:  98  15:15:31  -2.81  -2.19  -299.731703    3      21     
iter:  99  15:16:16  -2.71  -2.30  -299.910883    3      21     
iter: 100  15:16:54  -2.70  -2.19  -299.569170    3      20     
iter: 101  15:17:27  -3.28  -2.57  -299.603657    3      11     
iter: 102  15:18:00  -3.23  -2.51  -299.602340    2      12     
iter: 103  15:18:34  -3.35  -2.52  -299.627547    2      18     
iter: 104  15:19:08  -3.47  -2.42  -299.563630    3      16     
iter: 105  15:19:42  -3.32  -2.64  -299.704313    3      18     
iter: 106  15:20:15  -3.19  -2.35  -299.578588    2      18     
iter: 107  15:20:47  -3.88  -2.59  -299.562803    2      12     
iter: 108  15:21:19  -4.10  -2.68  -299.568127    2      9      
iter: 109  15:21:50  -3.58  -2.65  -299.594412    3      11     
iter: 110  15:22:25  -3.17  -2.69  -299.609093    3      15     
iter: 111  15:23:00  -3.24  -2.52  -299.643048    3      19     
iter: 112  15:23:34  -3.38  -2.52  -299.577580    2      18     
iter: 113  15:24:07  -3.44  -2.86  -299.587274    3      13     
iter: 114  15:24:41  -3.60  -2.69  -299.568231    2      10     
iter: 115  15:25:13  -4.15  -2.87  -299.562273    2      10     
iter: 116  15:25:45  -4.19  -3.11  -299.565481    2      9      
iter: 117  15:26:16  -4.16  -2.95  -299.564892    2      9      
iter: 118  15:26:48  -4.13  -2.98  -299.571016    2      14     
iter: 119  15:27:23  -4.08  -2.87  -299.563921    2      13     
iter: 120  15:27:54  -4.48  -3.08  -299.560616    2      5      
iter: 121  15:28:32  -4.54  -3.20  -299.562811    2      6      
iter: 122  15:29:10  -4.55  -3.08  -299.559555    2      5      
iter: 123  15:29:48  -5.32  -3.28  -299.559824    2      4      
iter: 124  15:30:19  -4.87  -3.27  -299.562215    2      9      
iter: 125  15:30:51  -4.85  -3.10  -299.560191    2      9      
iter: 126  15:31:23  -5.28  -3.28  -299.559730    2      6      
iter: 127  15:31:54  -5.12  -3.28  -299.560115    2      4      
iter: 128  15:32:26  -4.94  -3.28  -299.559789    2      5      
iter: 129  15:32:59  -5.37  -3.33  -299.560057    2      4      
iter: 130  15:33:31  -4.80  -3.33  -299.562688    2      7      
iter: 131  15:34:03  -4.50  -3.37  -299.560841    2      8      
iter: 132  15:34:36  -4.78  -3.29  -299.561326    2      7      
iter: 133  15:35:09  -5.09  -3.42  -299.560213    2      5      
iter: 134  15:35:40  -5.57  -4.05  -299.560750    2      3      
iter: 135  15:36:11  -5.70  -4.02  -299.560380    2      3      
iter: 136  15:36:42  -6.14  -4.10  -299.560324    2      3      
iter: 137  15:37:13  -6.41  -4.22  -299.560402    2      3      
iter: 138  15:37:44  -6.74  -4.24  -299.560414    2      2      
iter: 139  15:38:16  -6.42  -4.36  -299.560226    2      3      
iter: 140  15:38:47  -6.44  -4.12  -299.560262    2      2      
iter: 141  15:39:24  -6.94  -4.39  -299.560271    2      2      
iter: 142  15:40:02  -6.99  -4.41  -299.560259    2      2      
iter: 143  15:40:40  -7.25  -4.60  -299.560325    2      2      
iter: 144  15:41:15  -7.24  -4.47  -299.560262    1      2      
iter: 145  15:41:45  -7.46  -4.62  -299.560212    1      2      

Converged after 145 iterations.

Dipole moment: (-29.224388, -6.773306, 2.383141) |e|*Ang

Energy contributions relative to reference atoms: (reference = -648925.267931)

Kinetic:       +208.309120
Potential:     -240.993698
External:        +0.000000
XC:            -279.292394
Entropy (-ST):   -2.848566
Local:          +13.841042
--------------------------
Free energy:   -300.984495
Extrapolated:  -299.560212

Fermi level: 1.57146

 Band  Eigenvalues  Occupancy
    0    -22.44948    2.00000
    1    -22.24011    2.00000
    2    -22.22925    2.00000
    3    -22.18143    2.00000
    4    -22.12494    2.00000
    5    -22.08812    2.00000
    6    -22.03628    2.00000
    7    -21.99590    2.00000
    8    -21.96784    2.00000
    9    -21.93548    2.00000
   10    -21.90726    2.00000
   11    -21.88460    2.00000
   12    -21.85009    2.00000
   13    -21.76891    2.00000
   14    -21.69527    2.00000
   15    -21.65123    2.00000
   16    -21.63870    2.00000
   17    -21.53502    2.00000
   18    -21.50860    2.00000
   19    -21.49786    2.00000
   20    -21.43467    2.00000
   21    -21.40326    2.00000
   22    -21.37725    2.00000
   23    -21.36547    2.00000
   24    -21.28170    2.00000
   25    -21.26545    2.00000
   26    -21.15545    2.00000
   27    -21.14551    2.00000
   28    -21.07044    2.00000
   29    -21.02467    2.00000
   30    -20.89108    2.00000
   31    -20.70191    2.00000
   32    -17.09611    2.00000
   33    -16.95975    2.00000
   34    -16.93910    2.00000
   35    -16.93854    2.00000
   36     -5.51860    2.00000
   37     -5.42408    2.00000
   38     -5.32866    2.00000
   39     -5.27170    2.00000
   40     -5.22298    2.00000
   41     -5.19247    2.00000
   42     -5.17370    2.00000
   43     -5.11751    2.00000
   44     -4.98041    2.00000
   45     -4.91717    2.00000
   46     -4.82939    2.00000
   47     -4.70503    2.00000
   48     -4.67546    2.00000
   49     -4.62904    2.00000
   50     -4.56308    2.00000
   51     -4.54918    2.00000
   52     -4.52718    2.00000
   53     -4.51582    2.00000
   54     -4.48448    2.00000
   55     -4.47759    2.00000
   56     -4.44809    2.00000
   57     -4.42264    2.00000
   58     -4.36289    2.00000
   59     -4.33912    2.00000
   60     -4.32224    2.00000
   61     -4.30191    2.00000
   62     -4.29117    2.00000
   63     -4.22763    2.00000
   64     -4.20543    2.00000
   65     -4.16808    2.00000
   66     -4.15870    2.00000
   67     -4.14216    2.00000
   68     -4.10727    2.00000
   69     -4.07769    2.00000
   70     -4.06772    2.00000
   71     -4.04788    2.00000
   72     -4.03431    2.00000
   73     -4.00033    2.00000
   74     -3.97534    2.00000
   75     -3.97427    2.00000
   76     -3.92455    2.00000
   77     -3.89100    2.00000
   78     -3.85117    2.00000
   79     -3.84459    2.00000
   80     -3.82459    2.00000
   81     -3.76075    2.00000
   82     -3.72788    2.00000
   83     -3.66820    2.00000
   84     -3.59185    2.00000
   85     -3.56110    2.00000
   86     -3.52276    2.00000
   87     -3.48867    2.00000
   88     -3.45383    2.00000
   89     -3.43808    2.00000
   90     -3.37872    2.00000
   91     -3.35032    2.00000
   92     -3.32232    2.00000
   93     -3.27412    2.00000
   94     -3.21238    2.00000
   95     -3.19483    2.00000
   96     -3.12842    2.00000
   97     -3.08858    2.00000
   98     -3.06308    2.00000
   99     -3.04928    2.00000
  100     -3.01178    2.00000
  101     -2.98929    2.00000
  102     -2.98136    2.00000
  103     -2.94142    2.00000
  104     -2.93057    2.00000
  105     -2.89510    2.00000
  106     -2.86507    2.00000
  107     -2.83557    2.00000
  108     -2.79524    2.00000
  109     -2.76345    2.00000
  110     -2.75154    2.00000
  111     -2.73927    2.00000
  112     -2.71763    2.00000
  113     -2.66312    2.00000
  114     -2.63794    2.00000
  115     -2.57471    2.00000
  116     -2.54825    2.00000
  117     -2.51571    2.00000
  118     -2.48777    2.00000
  119     -2.46763    2.00000
  120     -2.45838    2.00000
  121     -2.42765    2.00000
  122     -2.41000    2.00000
  123     -2.37706    2.00000
  124     -2.34616    2.00000
  125     -2.32414    2.00000
  126     -2.28612    2.00000
  127     -2.26656    2.00000
  128     -2.23423    2.00000
  129     -2.20889    2.00000
  130     -2.19334    2.00000
  131     -2.16475    2.00000
  132     -2.10628    2.00000
  133     -2.08106    2.00000
  134     -2.05270    2.00000
  135     -2.01639    2.00000
  136     -1.96377    2.00000
  137     -1.93554    2.00000
  138     -1.90036    2.00000
  139     -1.87492    2.00000
  140     -1.82625    2.00000
  141     -1.79799    2.00000
  142     -1.62392    2.00000
  143     -1.50963    2.00000
  144      0.80675    1.99905
  145      0.82037    1.99891
  146      0.83499    1.99873
  147      0.86642    1.99827
  148      0.88173    1.99798
  149      0.90325    1.99750
  150      0.95167    1.99594
  151      0.96020    1.99558
  152      0.97880    1.99468
  153      0.99149    1.99396
  154      1.01558    1.99232
  155      1.02622    1.99146
  156      1.03141    1.99101
  157      1.03605    1.99059
  158      1.06381    1.98759
  159      1.08158    1.98520
  160      1.11581    1.97922
  161      1.14488    1.97231
  162      1.15402    1.96970
  163      1.15804    1.96847
  164      1.17518    1.96269
  165      1.19041    1.95668
  166      1.19710    1.95376
  167      1.21173    1.94667
  168      1.22332    1.94031
  169      1.23461    1.93341
  170      1.23635    1.93228
  171      1.24960    1.92306
  172      1.25000    1.92276
  173      1.25997    1.91500
  174      1.27391    1.90291
  175      1.29941    1.87645
  176      1.32201    1.84751
  177      1.35187    1.79976
  178      1.35902    1.78649
  179      1.37811    1.74726
  180      1.39102    1.71737
  181      1.40921    1.67028
  182      1.43936    1.57868
  183      1.44759    1.55065
  184      1.45012    1.54178
  185      1.47756    1.43777
  186      1.50848    1.30485
  187      1.52576    1.22461
  188      1.56401    1.03721
  189      1.58980    0.90852
  190      1.59219    0.89672
  191      1.66125    0.57897
  192      1.67470    0.52524
  193      1.70434    0.41872
  194      1.71869    0.37318
  195      1.72595    0.35164
  196      1.79991    0.18483
  197      1.83389    0.13517
  198      1.86251    0.10327
  199      1.87494    0.09175
  200      1.91487    0.06249
  201      1.92432    0.05701
  202      1.94128    0.04834
  203      1.99544    0.02841
  204      2.09690    0.01039
  205      2.14044    0.00674
  206      2.20868    0.00341
  207      2.22592    0.00287
  208      2.26455    0.00195
  209      2.40513    0.00048
  210      2.41422    0.00044
  211      2.46142    0.00027
  212      2.49049    0.00020
  213      2.51643    0.00016
  214      2.57522    0.00009
  215      2.70053    0.00002
  216      2.72555    0.00002
  217      2.73093    0.00002
  218      2.80720    0.00001
  219      2.82757    0.00001
  220      2.87234    0.00000
  221      2.89273    0.00000
  222      2.97017    0.00000
  223      3.01590    0.00000
  224      4.91620    0.00000
  225      5.75293    0.00000
  226      6.20397    0.00000
  227      6.80389    0.00000
  228      7.39605    0.00000
  229      7.69923    0.00000
  230      7.76463    0.00000
  231      7.98123    0.00000
  232      8.29025    0.00000
  233      8.45474    0.00000
  234      8.58991    0.00000
  235      8.93906    0.00000
  236      9.88352    0.00000
  237     10.07747    0.00000
  238     10.08945    0.00000
  239     10.13767    0.00000
  240     10.40740    0.00000
  241     10.72963    0.00000
  242     10.81698    0.00000
  243     10.89326    0.00000
  244     10.96644    0.00000
  245     10.99435    0.00000
  246     11.03780    0.00000
  247     11.22422    0.00000
  248     11.25640    0.00000
  249     11.46748    0.00000
  250     11.56071    0.00000
  251     11.70262    0.00000
  252     11.76375    0.00000
  253     11.86636    0.00000
  254     11.89232    0.00000
  255     11.94222    0.00000
  256     12.02234    0.00000
  257     12.07808    0.00000
  258     12.21323    0.00000
  259     12.31455    0.00000
  260     12.38381    0.00000
  261     12.40887    0.00000
  262     12.49561    0.00000
  263     12.50452    0.00000
  264     12.54688    0.00000
  265     12.56756    0.00000
  266     12.59915    0.00000
  267     12.65901    0.00000
  268     12.69600    0.00000
  269     12.74629    0.00000
  270     12.78783    0.00000
  271     12.99693    0.00000
  272     13.08115    0.00000
  273     13.14696    0.00000
  274     13.23917    0.00000
  275     13.25695    0.00000
  276     13.30510    0.00000
  277     13.39510    0.00000
  278     13.43770    0.00000
  279     13.51738    0.00000
  280     13.68328    0.00000
  281     13.99416    0.00000
  282     14.05506    0.00000
  283     14.22363    0.00000
  284     14.33223    0.00000
  285     14.41045    0.00000
  286     14.50773    0.00000
  287     14.58201    0.00000

Timing:                              incl.     excl.
-----------------------------------------------------------
Hamiltonian:                         5.254     0.000   0.0% |
 Atomic:                             2.283     0.005   0.0% |
  XC Correction:                     2.278     2.278   0.0% |
 Calculate atomic Hamiltonians:      0.028     0.028   0.0% |
 Communicate:                        0.000     0.000   0.0% |
 Hartree integrate/restrict:         0.015     0.015   0.0% |
 Initialize Hamiltonian:             0.000     0.000   0.0% |
 Poisson:                            2.275     2.275   0.0% |
 XC 3D grid:                         0.646     0.646   0.0% |
 vbar:                               0.006     0.006   0.0% |
LCAO initialization:                21.667     0.228   0.0% |
 LCAO eigensolver:                   2.093     0.000   0.0% |
  Calculate projections:             0.023     0.023   0.0% |
  DenseAtomicCorrection:             0.022     0.022   0.0% |
  Distribute overlap matrix:         0.000     0.000   0.0% |
  Orbital Layouts:                   0.059     0.059   0.0% |
  Potential matrix:                  1.989     1.989   0.0% |
 LCAO to grid:                      18.155    18.155   0.3% |
 Set positions (LCAO WFS):           1.190     0.000   0.0% |
  Basic WFS set positions:           0.001     0.001   0.0% |
  Basis functions set positions:     0.000     0.000   0.0% |
  TCI: Calculate S, T, P:            1.189     1.189   0.0% |
SCF-cycle:                        5196.877     0.120   0.0% |
 Davidson:                        4401.981   695.545  13.3% |----|
  Apply hamiltonian:               100.572   100.572   1.9% ||
  Subspace diag:                  1271.781     0.030   0.0% |
   calc_h_matrix:                  495.312   394.899   7.6% |--|
    Apply hamiltonian:             100.413   100.413   1.9% ||
   diagonalize:                      3.170     3.170   0.1% |
   rotate_psi:                     773.268   773.268  14.8% |-----|
  calc. matrices:                 1535.378  1434.617  27.5% |----------|
   Apply hamiltonian:              100.761   100.761   1.9% ||
  diagonalize:                      14.262    14.262   0.3% |
  rotate_psi:                      784.442   784.442  15.0% |-----|
 Density:                           15.892     0.004   0.0% |
  Atomic density matrices:           0.930     0.930   0.0% |
  Mix:                               7.459     7.459   0.1% |
  Multipole moments:                 0.189     0.189   0.0% |
  Pseudo density:                    7.311     7.307   0.1% |
   Symmetrize density:               0.003     0.003   0.0% |
 Hamiltonian:                      773.075     0.031   0.0% |
  Atomic:                          343.050     0.733   0.0% |
   XC Correction:                  342.317   342.317   6.6% |--|
  Calculate atomic Hamiltonians:     4.623     4.623   0.1% |
  Communicate:                       0.001     0.001   0.0% |
  Hartree integrate/restrict:        2.567     2.567   0.0% |
  Poisson:                         324.866   324.866   6.2% |-|
  XC 3D grid:                       97.021    97.021   1.9% ||
  vbar:                              0.915     0.915   0.0% |
 Orthonormalize:                     5.810     0.000   0.0% |
  calc_s_matrix:                     1.596     1.596   0.0% |
  inverse-cholesky:                  0.004     0.004   0.0% |
  projections:                       1.565     1.565   0.0% |
  rotate_psi_s:                      2.644     2.644   0.1% |
Set symmetry:                        0.001     0.001   0.0% |
Other:                               1.300     1.300   0.0% |
-----------------------------------------------------------
Total:                                      5225.099 100.0%

Memory usage: 1.08 GiB
Date: Fri Mar 29 15:41:45 2019
