
  ___ ___ ___ _ _ _  
 |   |   |_  | | | | 
 | | | | | . | | | | 
 |__ |  _|___|_____|  1.4.0
 |___|_|             

User:   murakami@tssm1.eng.shizuoka.ac.jp
Date:   Wed Mar 27 18:22:47 2019
Arch:   x86_64
Pid:    31289
Python: 3.6.5
gpaw:   /home/murakami/.local/lib/python3.6/site-packages/gpaw
_gpaw:  /home/murakami/.local/lib/python3.6/site-packages/
        _gpaw.cpython-36m-x86_64-linux-gnu.so
ase:    /home/murakami/.local/lib/python3.6/site-packages/ase (version 3.16.2)
numpy:  /home/murakami/.local/lib/python3.6/site-packages/numpy (version 1.15.2)
scipy:  /home/murakami/.local/lib/python3.6/site-packages/scipy (version 1.1.0)
units:  Angstrom and eV
cores:  1

Input parameters:
  kpts: {size: (1, 1, 1)}
  maxiter: 300
  xc: PBE

System changes: positions, numbers, cell, pbc, initial_charges, initial_magmoms 

Initialize ...

Fe-setup:
  name: Iron
  id: 37abbd8d6c3c35915a9b583b742da910
  Z: 26
  valence: 8
  core: 18
  charge: 0.0
  file: /home/murakami/Public/gpaw-setups-0.9.20000/Fe.PBE.gz
  cutoffs: 1.06(comp), 2.06(filt), 2.67(core), lmax=2
  valence states:
                energy  radius
    4s(2.00)    -5.291   1.164
    4p(0.00)    -1.326   1.058
    3d(6.00)    -7.505   1.058
    *s          21.920   1.164
    *p          25.885   1.058
    *d          19.706   1.058

  Using partial waves for Fe as LCAO basis

O-setup:
  name: Oxygen
  id: 32ecd46bf208036f09c70b0ec9a88b78
  Z: 8
  valence: 6
  core: 2
  charge: 0.0
  file: /home/murakami/Public/gpaw-setups-0.9.20000/O.PBE.gz
  cutoffs: 0.67(comp), 1.17(filt), 0.83(core), lmax=2
  valence states:
                energy  radius
    2s(2.00)   -23.961   0.688
    2p(4.00)    -9.029   0.598
    *s           3.251   0.688
    *p          18.182   0.598
    *d           0.000   0.619

  Using partial waves for O as LCAO basis

F-setup:
  name: Fluorine
  id: 9cd46ba2a61e170ad72278be75b55cc0
  Z: 9
  valence: 7
  core: 2
  charge: 0.0
  file: /home/murakami/Public/gpaw-setups-0.9.20000/F.PBE.gz
  cutoffs: 0.64(comp), 1.14(filt), 0.74(core), lmax=2
  valence states:
                energy  radius
    2s(2.00)   -29.898   0.635
    2p(5.00)   -11.110   0.635
    *s          -2.687   0.635
    *p          16.102   0.635
    *d           0.000   0.635

  Using partial waves for F as LCAO basis

Reference energy: -648925.267931

Spin-paired calculation

Occupation numbers:
  Fermi-Dirac: width=0.1000 eV

Convergence criteria:
  Maximum total energy change: 0.0005 eV / electron
  Maximum integral of absolute density change: 0.0001 electrons
  Maximum integral of absolute eigenstate change: 4e-08 eV^2
  Maximum number of iterations: 300

Symmetries present (total): 1

  ( 1  0  0)
  ( 0  1  0)
  ( 0  0  1)

1 k-point (Gamma)
1 k-point in the irreducible part of the Brillouin zone
       k-points in crystal coordinates                weights
   0:     0.00000000    0.00000000    0.00000000          1/1

Wave functions: Uniform real-space grid
  Kinetic energy operator: 12*3+1=37 point O(h^6) finite-difference Laplacian
  ScaLapack parameters: grid=1x1, blocksize=None 

Eigensolver
   Davidson(niter=1, smin=None, normalize=True) 

Densities:
  Coarse grid: 48*28*76 grid
  Fine grid: 96*56*152 grid
  Total Charge: 0.000000 

Density mixing:
  Method: separate
  Backend: pulay
  Linear mixing parameter: 0.05
  Mixing with 5 old densities
  Damping of long wave oscillations: 50 

Hamiltonian:
  XC and Coulomb potentials evaluated on a 96*56*152 grid
  Using the PBE Exchange-Correlation functional
  Interpolation: tri-quintic (5. degree polynomial)
  Poisson solver: Jacobi solver with 4 multi-grid levels
    Coarsest grid: 12 x 7 x 19 points
    Stencil: 12*3+1=37 point O(h^6) finite-difference Laplacian
    Max iterations: 1000
    Tolerance: 2.000000e-10 

Memory estimate:
  Process memory now: 1099.93 MiB
  Calculator: 625.81 MiB
    Density: 116.13 MiB
      Arrays: 20.26 MiB
      Localized functions: 88.08 MiB
      Mixer: 7.79 MiB
    Hamiltonian: 35.03 MiB
      Arrays: 13.25 MiB
      XC: 0.00 MiB
      Poisson: 15.10 MiB
      vbar: 6.68 MiB
    Wavefunctions: 474.64 MiB
      Arrays psit_nG: 224.44 MiB
      Eigensolver: 234.67 MiB
      Projections: 1.66 MiB
      Projectors: 13.87 MiB

Total number of cores used: 1

Number of atoms: 52
Number of atomic orbitals: 288
Number of bands in calculation: 288
Bands to converge: occupied states only
Number of valence electrons: 376

... initialized

Initializing position-dependent things.

Density initialized from atomic densities
Creating initial wave functions:
  288 bands from LCAO basis set

                                           
                                           
                                           
                                           
                          Fe               
              F       F                    
             Fe              O             
               O        F      F           
                            Fe             
         F       F       F                 
               Fe                          
            FFe    F      F                
              F       F      F             
         F     F      Fe                   
                        F   Fe             
             Fe  O        F      F         
               Fe Fe                       
            F      F   Fe  O               
              F       F     Fe             
                          Fe               
        F    FeF        F                  
                         F                 
          F     F Fe                       
            F                              
                    F     F Fe             
                                           
                                           
                                           
                                           
                                           

Positions:
   0 Fe     1.545052    2.593853    2.677597    ( 0.0000,  0.0000,  0.0000)
   1 Fe     1.545198    2.765614   10.155423    ( 0.0000,  0.0000,  0.0000)
   2 Fe     6.247924    5.273587    2.635533    ( 0.0000,  0.0000,  0.0000)
   3 Fe     6.165925    0.048691   10.114052    ( 0.0000,  0.0000,  0.0000)
   4 Fe     1.650483    2.534235   14.537576    ( 0.0000,  0.0000,  0.0000)
   5 Fe     1.650730    2.825232    7.059751    ( 0.0000,  0.0000,  0.0000)
   6 Fe     6.353355    5.213968   14.495512    ( 0.0000,  0.0000,  0.0000)
   7 Fe     6.349072    0.173465    7.017686    ( 0.0000,  0.0000,  0.0000)
   8 Fe     3.117860    0.179381   12.148558    ( 0.0000,  0.0000,  0.0000)
   9 Fe     3.122127    5.201824    4.727175    ( 0.0000,  0.0000,  0.0000)
  10 Fe     7.820670    2.785937   12.229578    ( 0.0000,  0.0000,  0.0000)
  11 Fe     7.820469    2.549096    4.751753    ( 0.0000,  0.0000,  0.0000)
  12 Fe     3.190803    0.023153    7.705238    ( 0.0000,  0.0000,  0.0000)
  13 Fe     3.140949    5.336314    0.227899    ( 0.0000,  0.0000,  0.0000)
  14 Fe     7.873857    2.702886    7.663351    ( 0.0000,  0.0000,  0.0000)
  15 Fe     7.839268    2.656581    0.185834    ( 0.0000,  0.0000,  0.0000)
  16 O      2.908667    1.433164   13.814659    ( 0.0000,  0.0000,  0.0000)
  17 O      2.910785    3.926303    6.336834    ( 0.0000,  0.0000,  0.0000)
  18 O      7.611539    4.112898   13.772595    ( 0.0000,  0.0000,  0.0000)
  19 O      7.621411    1.246569    6.294659    ( 0.0000,  0.0000,  0.0000)
  20 F      0.016397    1.970810    3.648284    ( 0.0000,  0.0000,  0.0000)
  21 F      0.039172    3.382670   11.125917    ( 0.0000,  0.0000,  0.0000)
  22 F      4.740849    4.656530    3.606027    ( 0.0000,  0.0000,  0.0000)
  23 F      4.737491    0.702937   11.204230    ( 0.0000,  0.0000,  0.0000)
  24 F      0.245423    2.119010    8.659520    ( 0.0000,  0.0000,  0.0000)
  25 F      0.246375    3.240457    1.181694    ( 0.0000,  0.0000,  0.0000)
  26 F      4.914958    4.798743    8.617754    ( 0.0000,  0.0000,  0.0000)
  27 F      4.944724    0.595908    1.139630    ( 0.0000,  0.0000,  0.0000)
  28 F      1.656694    1.147837    1.234055    ( 0.0000,  0.0000,  0.0000)
  29 F      1.659297    4.211630    8.711881    ( 0.0000,  0.0000,  0.0000)
  30 F      6.359575    3.837979    1.191991    ( 0.0000,  0.0000,  0.0000)
  31 F      6.357616    1.531896    8.669816    ( 0.0000,  0.0000,  0.0000)
  32 F      1.706998    1.090357   11.043749    ( 0.0000,  0.0000,  0.0000)
  33 F      1.675591    4.269110    3.566228    ( 0.0000,  0.0000,  0.0000)
  34 F      6.409870    3.770090   11.001684    ( 0.0000,  0.0000,  0.0000)
  35 F      6.335027    1.589377    3.597555    ( 0.0000,  0.0000,  0.0000)
  36 F      1.777772    1.081862    6.320255    ( 0.0000,  0.0000,  0.0000)
  37 F      1.780487    4.277605   13.798081    ( 0.0000,  0.0000,  0.0000)
  38 F      6.480644    3.761596    6.278191    ( 0.0000,  0.0000,  0.0000)
  39 F      6.478806    1.597871   13.756016    ( 0.0000,  0.0000,  0.0000)
  40 F      2.760613    1.859028    8.623789    ( 0.0000,  0.0000,  0.0000)
  41 F      2.762007    3.500439    1.145964    ( 0.0000,  0.0000,  0.0000)
  42 F      7.463485    4.538761    8.581725    ( 0.0000,  0.0000,  0.0000)
  43 F      7.460326    0.820706    1.103899    ( 0.0000,  0.0000,  0.0000)
  44 F      2.850949    1.637912    3.683786    ( 0.0000,  0.0000,  0.0000)
  45 F      2.852719    3.721555   11.161611    ( 0.0000,  0.0000,  0.0000)
  46 F      7.553821    4.317646    3.641721    ( 0.0000,  0.0000,  0.0000)
  47 F      7.551038    1.041821   11.119547    ( 0.0000,  0.0000,  0.0000)
  48 F      4.613909    0.721642    6.284284    ( 0.0000,  0.0000,  0.0000)
  49 F      4.617240    4.642831   13.762110    ( 0.0000,  0.0000,  0.0000)
  50 F      9.376516    3.401375    6.241685    ( 0.0000,  0.0000,  0.0000)
  51 F      9.315555    1.958092   13.720045    ( 0.0000,  0.0000,  0.0000)

Unit cell:
           periodic     x           y           z      points  spacing
  1. axis:    yes    9.401191    0.000000   -0.084129    48     0.1959
  2. axis:    yes    0.004553    5.359467    0.000000    28     0.1914
  3. axis:    yes    0.000000    0.000000   14.955651    76     0.1968

  Lengths:   9.401567   5.359469  14.955651
  Angles:   90.000000  90.512712  89.951328

Effective grid spacing dv^(1/3) = 0.1947

                     log10-error:    total        iterations:
           time      wfs    density  energy       fermi  poisson
iter:   1  18:23:49  +1.49   +inf  -311.433654    3      18     
iter:   2  18:24:18  +0.29   +inf  -312.998269    3             
iter:   3  18:24:47  -0.29   +inf  -313.426377    2             
iter:   4  18:25:22  -0.47  -1.13  -310.432091    3      17     
iter:   5  18:25:58  -0.41  -1.15  -327.987950    3      28     
iter:   6  18:26:42  -0.13  -1.11  -343.247730    4      35     
iter:   7  18:27:26  -0.23  -1.16  -320.314107    3      35     
iter:   8  18:28:04  -0.42  -1.26  -311.292608    3      33     
iter:   9  18:28:41  -0.71  -1.29  -320.866871    3      33     
iter:  10  18:29:18  -0.80  -1.23  -303.419579    4      31     
iter:  11  18:29:54  -1.38  -1.39  -300.813554    3      26     
iter:  12  18:30:33  -1.88  -1.44  -301.109746    3      22     
iter:  13  18:31:09  -1.68  -1.44  -303.648507    4      28     
iter:  14  18:31:57  -1.37  -1.40  -309.390696    4      31     
iter:  15  18:32:36  -1.11  -1.33  -308.431063    3      32     
iter:  16  18:33:13  -1.19  -1.34  -302.800430    3      28     
iter:  17  18:33:54  -1.43  -1.44  -303.060298    3      28     
iter:  18  18:34:33  -1.66  -1.42  -300.257303    3      26     
iter:  19  18:35:08  -2.11  -1.50  -301.107309    4      23     
iter:  20  18:35:45  -1.73  -1.48  -304.778851    4      28     
iter:  21  18:36:21  -1.33  -1.41  -307.077976    2      31     
iter:  22  18:36:57  -1.26  -1.38  -304.247020    3      28     
iter:  23  18:37:34  -1.42  -1.44  -303.704666    3      28     
iter:  24  18:38:14  -1.57  -1.44  -300.399706    4      27     
iter:  25  18:38:48  -2.32  -1.53  -299.911819    3      16     
iter:  26  18:39:32  -2.02  -1.56  -303.043694    3      26     
iter:  27  18:40:25  -1.52  -1.48  -303.385697    3      29     
iter:  28  18:41:14  -1.58  -1.47  -300.864777    3      26     
iter:  29  18:42:04  -1.51  -1.55  -305.982658    3      28     
iter:  30  18:42:52  -1.24  -1.47  -305.284252    3      31     
iter:  31  18:43:43  -1.46  -1.49  -300.161496    4      28     
iter:  32  18:44:25  -1.96  -1.60  -301.184412    3      24     
iter:  33  18:45:12  -1.66  -1.58  -303.256963    3      28     
iter:  34  18:45:59  -1.65  -1.50  -299.914832    4      27     
iter:  35  18:46:36  -1.91  -1.64  -301.108069    4      23     
iter:  36  18:47:12  -1.70  -1.63  -300.992714    3      23     
iter:  37  18:48:02  -1.51  -1.64  -307.315137    3      29     
iter:  38  18:48:52  -1.46  -1.46  -301.398836    3      27     
iter:  39  18:49:41  -1.49  -1.65  -302.444608    4      27     
iter:  40  18:50:18  -1.50  -1.67  -300.900950    3      27     
iter:  41  18:50:53  -1.81  -1.69  -300.257332    3      18     
iter:  42  18:51:29  -2.16  -1.75  -299.852650    3      20     
iter:  43  18:52:10  -2.90  -1.81  -299.701178    2      18     
iter:  44  18:52:53  -2.64  -1.84  -299.884512    3      17     
iter:  45  18:53:44  -1.76  -1.82  -305.334943    3      29     
iter:  46  18:54:22  -1.62  -1.52  -300.495846    4      30     
iter:  47  18:54:59  -2.09  -1.77  -300.419330    3      24     
iter:  48  18:55:35  -1.94  -1.79  -301.171513    3      19     
iter:  49  18:56:12  -1.99  -1.75  -299.744330    3      25     
iter:  50  18:56:51  -2.78  -1.88  -299.706038    3      14     
iter:  51  18:57:38  -1.97  -1.91  -302.434490    3      27     
iter:  52  18:58:28  -1.86  -1.68  -299.944979    3      27     
iter:  53  18:59:12  -2.25  -1.89  -300.176848    3      16     
iter:  54  19:00:02  -2.15  -1.89  -300.007665    3      22     
iter:  55  19:00:52  -1.66  -2.03  -305.538930    3      29     
iter:  56  19:01:45  -1.62  -1.59  -300.252265    4      29     
iter:  57  19:02:38  -2.12  -1.96  -299.992298    2      20     
iter:  58  19:03:25  -2.31  -2.07  -299.921959    3      16     
iter:  59  19:04:01  -2.68  -2.05  -299.643070    3      20     
iter:  60  19:04:39  -2.39  -2.16  -300.337883    3      23     
iter:  61  19:05:14  -2.19  -1.95  -300.114038    2      25     
iter:  62  19:05:51  -2.57  -2.01  -299.597301    3      22     
iter:  63  19:06:27  -2.78  -2.22  -299.720628    3      13     
iter:  64  19:07:01  -2.68  -2.19  -299.720745    3      19     
iter:  65  19:07:36  -2.96  -2.17  -299.612348    3      20     
iter:  66  19:08:09  -2.77  -2.23  -299.754901    3      9      
iter:  67  19:08:44  -2.67  -2.21  -299.732107    3      18     
iter:  68  19:09:19  -2.47  -2.24  -300.182461    3      23     
iter:  69  19:09:54  -2.46  -2.06  -299.707171    3      20     
iter:  70  19:10:31  -2.86  -2.27  -299.751155    3      22     
iter:  71  19:11:07  -2.85  -2.24  -299.635878    3      21     
iter:  72  19:11:49  -3.09  -2.33  -299.613673    3      16     
iter:  73  19:12:31  -3.03  -2.36  -299.641681    3      17     
iter:  74  19:13:09  -3.07  -2.35  -299.597172    3      12     
iter:  75  19:13:43  -3.63  -2.42  -299.564761    2      14     
iter:  76  19:14:17  -3.72  -2.50  -299.574658    3      13     
iter:  77  19:14:52  -2.90  -2.52  -299.769979    3      18     
iter:  78  19:15:27  -2.95  -2.27  -299.591986    2      20     
iter:  79  19:16:02  -3.24  -2.47  -299.658074    3      19     
iter:  80  19:16:37  -3.00  -2.42  -299.705727    3      19     
iter:  81  19:17:11  -3.06  -2.39  -299.568732    3      18     
iter:  82  19:17:46  -3.44  -2.55  -299.579328    3      13     
iter:  83  19:18:21  -3.55  -2.56  -299.559924    3      12     
iter:  84  19:18:55  -3.79  -2.64  -299.570049    2      16     
iter:  85  19:19:29  -3.58  -2.60  -299.603114    3      16     
iter:  86  19:20:03  -3.51  -2.56  -299.578039    2      15     
iter:  87  19:20:37  -3.28  -2.63  -299.639681    2      16     
iter:  88  19:21:12  -3.37  -2.48  -299.561701    3      16     
iter:  89  19:21:44  -3.91  -2.67  -299.558170    2      6      
iter:  90  19:22:20  -4.07  -2.72  -299.555097    2      11     
iter:  91  19:22:53  -4.33  -2.78  -299.559037    2      11     
iter:  92  19:23:34  -3.94  -2.78  -299.566923    3      13     
iter:  93  19:24:16  -3.97  -2.68  -299.553919    2      14     
iter:  94  19:24:55  -4.06  -2.80  -299.567253    2      12     
iter:  95  19:25:29  -3.98  -2.74  -299.563270    2      13     
iter:  96  19:26:02  -4.14  -2.77  -299.555643    2      7      
iter:  97  19:26:36  -4.55  -2.83  -299.552080    2      10     
iter:  98  19:27:12  -4.62  -2.88  -299.554069    2      7      
iter:  99  19:27:58  -4.40  -2.85  -299.555872    2      11     
iter: 100  19:28:43  -4.50  -2.85  -299.555742    2      11     
iter: 101  19:29:22  -4.27  -2.86  -299.564754    2      11     
iter: 102  19:30:07  -3.95  -2.81  -299.560006    2      8      
iter: 103  19:30:55  -4.18  -2.81  -299.555772    2      13     
iter: 104  19:31:36  -4.37  -2.87  -299.559094    2      8      
iter: 105  19:32:16  -4.29  -2.89  -299.556624    2      12     
iter: 106  19:33:02  -4.51  -2.86  -299.552658    2      11     
iter: 107  19:33:53  -4.60  -2.96  -299.557033    2      7      
iter: 108  19:34:37  -4.25  -2.95  -299.557889    2      7      
iter: 109  19:35:23  -4.08  -2.91  -299.568597    2      15     
iter: 110  19:36:10  -4.05  -2.76  -299.553436    2      14     
iter: 111  19:36:55  -4.30  -2.97  -299.554660    2      5      
iter: 112  19:37:45  -4.52  -3.01  -299.553013    2      6      
iter: 113  19:38:28  -4.75  -3.05  -299.556932    2      10     
iter: 114  19:39:12  -4.69  -2.97  -299.551369    2      9      
iter: 115  19:39:52  -4.84  -3.10  -299.555862    2      7      
iter: 116  19:40:38  -4.50  -3.04  -299.558150    2      9      
iter: 117  19:41:23  -4.41  -3.03  -299.554207    2      5      
iter: 118  19:42:00  -4.38  -3.07  -299.552706    2      7      
iter: 119  19:42:46  -4.28  -3.06  -299.563317    3      12     
iter: 120  19:43:31  -4.06  -2.94  -299.555399    2      12     
iter: 121  19:44:19  -4.61  -3.10  -299.553506    2      9      
iter: 122  19:45:02  -4.62  -3.10  -299.554098    2      9      
iter: 123  19:45:35  -4.52  -3.08  -299.554209    2      8      
iter: 124  19:46:09  -4.48  -3.23  -299.557464    2      7      
iter: 125  19:46:43  -4.42  -3.11  -299.554935    2      6      
iter: 126  19:47:30  -4.19  -3.32  -299.557667    2      11     
iter: 127  19:48:11  -4.34  -3.01  -299.555900    2      11     
iter: 128  19:48:53  -4.68  -3.21  -299.554108    2      11     
iter: 129  19:49:39  -4.66  -3.18  -299.553912    2      8      
iter: 130  19:50:23  -5.00  -3.38  -299.552300    2      6      
iter: 131  19:51:02  -4.62  -3.46  -299.556376    2      5      
iter: 132  19:51:43  -4.62  -3.23  -299.551985    2      5      
iter: 133  19:52:21  -5.43  -3.49  -299.552350    2      3      
iter: 134  19:52:58  -5.96  -3.62  -299.551916    2      4      
iter: 135  19:53:42  -5.79  -3.60  -299.552167    2      3      
iter: 136  19:54:25  -5.87  -3.61  -299.552470    2      3      
iter: 137  19:55:05  -6.09  -3.64  -299.552115    2      3      
iter: 138  19:55:48  -5.85  -3.64  -299.552165    2      4      
iter: 139  19:56:31  -5.84  -3.60  -299.552143    2      3      
iter: 140  19:57:14  -5.99  -3.70  -299.552685    2      3      
iter: 141  19:57:57  -5.72  -3.65  -299.552336    2      3      
iter: 142  19:58:38  -5.80  -3.65  -299.552133    2      3      
iter: 143  19:59:23  -6.01  -3.69  -299.552418    2      3      
iter: 144  20:00:05  -5.54  -3.69  -299.552458    2      5      
iter: 145  20:00:39  -5.43  -3.52  -299.552376    2      4      
iter: 146  20:01:14  -6.23  -3.76  -299.551970    2      4      
iter: 147  20:01:48  -6.00  -3.72  -299.552152    2      3      
iter: 148  20:02:28  -5.64  -3.69  -299.553011    2      3      
iter: 149  20:03:11  -5.73  -3.68  -299.552470    2      3      
iter: 150  20:03:44  -5.76  -3.72  -299.552014    2      3      
iter: 151  20:04:17  -5.73  -3.75  -299.552732    2      4      
iter: 152  20:04:52  -5.71  -3.62  -299.552518    2      3      
iter: 153  20:05:27  -5.85  -3.77  -299.552009    2      3      
iter: 154  20:05:59  -5.85  -3.74  -299.552554    2      3      
iter: 155  20:06:32  -5.73  -3.81  -299.552401    2      3      
iter: 156  20:07:04  -5.78  -3.69  -299.552109    2      3      
iter: 157  20:07:37  -6.41  -3.86  -299.552328    2      3      
iter: 158  20:08:12  -6.21  -3.87  -299.552633    2      3      
iter: 159  20:08:47  -6.21  -3.83  -299.552195    2      3      
iter: 160  20:09:28  -6.65  -3.90  -299.552268    2      2      
iter: 161  20:10:10  -6.03  -3.93  -299.552753    2      4      
iter: 162  20:10:50  -5.86  -3.75  -299.552520    2      3      
iter: 163  20:11:23  -6.31  -3.95  -299.552041    2      3      
iter: 164  20:11:56  -5.96  -3.91  -299.551842    2      4      
iter: 165  20:12:29  -5.88  -3.76  -299.552532    2      3      
iter: 166  20:13:01  -5.90  -3.85  -299.552640    2      3      
iter: 167  20:13:34  -6.12  -3.90  -299.552345    2      3      
iter: 168  20:14:13  -6.55  -3.94  -299.552205    2      3      
iter: 169  20:14:48  -6.62  -3.97  -299.552283    2      2      
iter: 170  20:15:20  -6.42  -4.03  -299.552171    2      3      
iter: 171  20:15:53  -5.70  -4.00  -299.553181    2      5      
iter: 172  20:16:26  -5.70  -3.69  -299.552279    2      4      
iter: 173  20:16:58  -6.33  -4.07  -299.552253    2      3      
iter: 174  20:17:31  -6.36  -4.09  -299.552544    2      3      
iter: 175  20:18:03  -6.42  -4.03  -299.552589    2      3      
iter: 176  20:18:39  -6.59  -4.07  -299.552188    2      2      
iter: 177  20:19:14  -6.85  -4.14  -299.552553    2      2      
iter: 178  20:19:56  -6.01  -4.19  -299.552157    2      3      
iter: 179  20:20:37  -6.02  -3.88  -299.552405    2      3      
iter: 180  20:21:17  -7.03  -4.27  -299.552314    2      2      
iter: 181  20:21:50  -7.01  -4.32  -299.552455    2      2      
iter: 182  20:22:24  -7.05  -4.26  -299.552315    1      2      
iter: 183  20:22:58  -6.69  -4.22  -299.552209    2      3      
iter: 184  20:23:32  -6.90  -4.24  -299.552394    2      2      
iter: 185  20:24:05  -6.54  -4.35  -299.552330    2      3      
iter: 186  20:24:38  -6.58  -4.12  -299.552318    2      2      
iter: 187  20:25:12  -7.24  -4.37  -299.552296    2      2      
iter: 188  20:25:47  -6.80  -4.38  -299.552402    2      2      
iter: 189  20:26:20  -6.84  -4.25  -299.552417    2      2      
iter: 190  20:26:52  -7.29  -4.33  -299.552364    2      2      
iter: 191  20:27:24  -7.99  -4.43  -299.552370    2      1      

Converged after 191 iterations.

Dipole moment: (-32.360658, -6.337937, 2.400826) |e|*Ang

Energy contributions relative to reference atoms: (reference = -648925.267931)

Kinetic:       +209.366617
Potential:     -242.144530
External:        +0.000000
XC:            -279.256021
Entropy (-ST):   -2.805806
Local:          +13.884466
--------------------------
Free energy:   -300.955274
Extrapolated:  -299.552370

Fermi level: 1.60389

 Band  Eigenvalues  Occupancy
    0    -22.25238    2.00000
    1    -22.19996    2.00000
    2    -22.16556    2.00000
    3    -22.09750    2.00000
    4    -22.02982    2.00000
    5    -22.01925    2.00000
    6    -22.00816    2.00000
    7    -21.92734    2.00000
    8    -21.89328    2.00000
    9    -21.83912    2.00000
   10    -21.82273    2.00000
   11    -21.77887    2.00000
   12    -21.76327    2.00000
   13    -21.72862    2.00000
   14    -21.68858    2.00000
   15    -21.62074    2.00000
   16    -21.60662    2.00000
   17    -21.59236    2.00000
   18    -21.52513    2.00000
   19    -21.51796    2.00000
   20    -21.47874    2.00000
   21    -21.46650    2.00000
   22    -21.44985    2.00000
   23    -21.39598    2.00000
   24    -21.37202    2.00000
   25    -21.34448    2.00000
   26    -21.30060    2.00000
   27    -21.27647    2.00000
   28    -21.24579    2.00000
   29    -21.20383    2.00000
   30    -21.10382    2.00000
   31    -20.92760    2.00000
   32    -16.92132    2.00000
   33    -16.85741    2.00000
   34    -16.80672    2.00000
   35    -16.76296    2.00000
   36     -5.39754    2.00000
   37     -5.34396    2.00000
   38     -5.25221    2.00000
   39     -5.18843    2.00000
   40     -5.16417    2.00000
   41     -5.13533    2.00000
   42     -5.08659    2.00000
   43     -5.04103    2.00000
   44     -4.91421    2.00000
   45     -4.85195    2.00000
   46     -4.78380    2.00000
   47     -4.72512    2.00000
   48     -4.63900    2.00000
   49     -4.61420    2.00000
   50     -4.55913    2.00000
   51     -4.50020    2.00000
   52     -4.47724    2.00000
   53     -4.46310    2.00000
   54     -4.45800    2.00000
   55     -4.43722    2.00000
   56     -4.40162    2.00000
   57     -4.38207    2.00000
   58     -4.33057    2.00000
   59     -4.32548    2.00000
   60     -4.31181    2.00000
   61     -4.28096    2.00000
   62     -4.26545    2.00000
   63     -4.26133    2.00000
   64     -4.24469    2.00000
   65     -4.20817    2.00000
   66     -4.18603    2.00000
   67     -4.14337    2.00000
   68     -4.13906    2.00000
   69     -4.05332    2.00000
   70     -4.02548    2.00000
   71     -4.01890    2.00000
   72     -4.00157    2.00000
   73     -3.98705    2.00000
   74     -3.95959    2.00000
   75     -3.93188    2.00000
   76     -3.92914    2.00000
   77     -3.90642    2.00000
   78     -3.83544    2.00000
   79     -3.81648    2.00000
   80     -3.77872    2.00000
   81     -3.71661    2.00000
   82     -3.66616    2.00000
   83     -3.62142    2.00000
   84     -3.61284    2.00000
   85     -3.56469    2.00000
   86     -3.51225    2.00000
   87     -3.47531    2.00000
   88     -3.40110    2.00000
   89     -3.36844    2.00000
   90     -3.34327    2.00000
   91     -3.32945    2.00000
   92     -3.26178    2.00000
   93     -3.22163    2.00000
   94     -3.19070    2.00000
   95     -3.15530    2.00000
   96     -3.13704    2.00000
   97     -3.12440    2.00000
   98     -3.08739    2.00000
   99     -3.04547    2.00000
  100     -3.02980    2.00000
  101     -2.98949    2.00000
  102     -2.96015    2.00000
  103     -2.93512    2.00000
  104     -2.91676    2.00000
  105     -2.88060    2.00000
  106     -2.86183    2.00000
  107     -2.84485    2.00000
  108     -2.80711    2.00000
  109     -2.79626    2.00000
  110     -2.76912    2.00000
  111     -2.72903    2.00000
  112     -2.71346    2.00000
  113     -2.70260    2.00000
  114     -2.68594    2.00000
  115     -2.60417    2.00000
  116     -2.56442    2.00000
  117     -2.51534    2.00000
  118     -2.50345    2.00000
  119     -2.48899    2.00000
  120     -2.47253    2.00000
  121     -2.44216    2.00000
  122     -2.42494    2.00000
  123     -2.36921    2.00000
  124     -2.34640    2.00000
  125     -2.33436    2.00000
  126     -2.28392    2.00000
  127     -2.24979    2.00000
  128     -2.22215    2.00000
  129     -2.21491    2.00000
  130     -2.19219    2.00000
  131     -2.17388    2.00000
  132     -2.16444    2.00000
  133     -2.13777    2.00000
  134     -2.09069    2.00000
  135     -2.04517    2.00000
  136     -2.00676    2.00000
  137     -1.99372    2.00000
  138     -1.91551    2.00000
  139     -1.87272    2.00000
  140     -1.84725    2.00000
  141     -1.82874    2.00000
  142     -1.80394    2.00000
  143     -1.73017    2.00000
  144      0.84596    1.99898
  145      0.85480    1.99888
  146      0.86709    1.99874
  147      0.91327    1.99800
  148      0.92506    1.99775
  149      0.92929    1.99765
  150      0.97357    1.99635
  151      0.99238    1.99559
  152      1.01974    1.99421
  153      1.03113    1.99351
  154      1.04571    1.99250
  155      1.05988    1.99136
  156      1.06548    1.99086
  157      1.08560    1.98884
  158      1.09345    1.98793
  159      1.11397    1.98521
  160      1.13818    1.98119
  161      1.15607    1.97755
  162      1.18490    1.97016
  163      1.18936    1.96882
  164      1.21487    1.95994
  165      1.22119    1.95738
  166      1.22320    1.95653
  167      1.24393    1.94679
  168      1.25501    1.94074
  169      1.26143    1.93693
  170      1.26395    1.93537
  171      1.28244    1.92275
  172      1.28315    1.92223
  173      1.29322    1.91434
  174      1.29842    1.90997
  175      1.32489    1.88427
  176      1.34791    1.85647
  177      1.37708    1.81240
  178      1.39635    1.77699
  179      1.40066    1.76830
  180      1.42468    1.71439
  181      1.43561    1.68656
  182      1.45294    1.63800
  183      1.47555    1.56607
  184      1.48391    1.53699
  185      1.50463    1.45923
  186      1.53127    1.34796
  187      1.55436    1.24271
  188      1.61521    0.94350
  189      1.61975    0.92087
  190      1.64044    0.81929
  191      1.70332    0.54013
  192      1.70867    0.51932
  193      1.73607    0.42104
  194      1.74392    0.39555
  195      1.77756    0.29948
  196      1.83904    0.17390
  197      1.85649    0.14812
  198      1.89151    0.10669
  199      1.92166    0.08003
  200      1.93577    0.06987
  201      1.95066    0.06049
  202      1.98240    0.04441
  203      2.01998    0.03071
  204      2.10688    0.01299
  205      2.17801    0.00640
  206      2.23954    0.00346
  207      2.26718    0.00263
  208      2.29634    0.00197
  209      2.44469    0.00045
  210      2.45469    0.00040
  211      2.50191    0.00025
  212      2.51216    0.00023
  213      2.52868    0.00019
  214      2.58488    0.00011
  215      2.70686    0.00003
  216      2.74213    0.00002
  217      2.75025    0.00002
  218      2.82627    0.00001
  219      2.84156    0.00001
  220      2.86772    0.00001
  221      2.91154    0.00000
  222      2.98767    0.00000
  223      3.01961    0.00000
  224      4.90476    0.00000
  225      5.77056    0.00000
  226      6.16152    0.00000
  227      6.79412    0.00000
  228      7.41009    0.00000
  229      7.69952    0.00000
  230      7.71745    0.00000
  231      7.97767    0.00000
  232      8.31039    0.00000
  233      8.43763    0.00000
  234      8.57442    0.00000
  235      8.93259    0.00000
  236      9.83078    0.00000
  237     10.07942    0.00000
  238     10.09668    0.00000
  239     10.15268    0.00000
  240     10.43988    0.00000
  241     10.76575    0.00000
  242     10.86022    0.00000
  243     10.88567    0.00000
  244     10.95139    0.00000
  245     11.00718    0.00000
  246     11.03422    0.00000
  247     11.22278    0.00000
  248     11.25397    0.00000
  249     11.48837    0.00000
  250     11.56852    0.00000
  251     11.73990    0.00000
  252     11.76683    0.00000
  253     11.88304    0.00000
  254     11.90594    0.00000
  255     11.97255    0.00000
  256     11.98943    0.00000
  257     12.08565    0.00000
  258     12.23595    0.00000
  259     12.27076    0.00000
  260     12.37607    0.00000
  261     12.38729    0.00000
  262     12.49603    0.00000
  263     12.51591    0.00000
  264     12.55092    0.00000
  265     12.58646    0.00000
  266     12.63752    0.00000
  267     12.66630    0.00000
  268     12.70280    0.00000
  269     12.70825    0.00000
  270     12.76114    0.00000
  271     12.98563    0.00000
  272     13.03530    0.00000
  273     13.12288    0.00000
  274     13.25140    0.00000
  275     13.28878    0.00000
  276     13.32434    0.00000
  277     13.39552    0.00000
  278     13.44702    0.00000
  279     13.48941    0.00000
  280     13.66545    0.00000
  281     14.00540    0.00000
  282     14.06215    0.00000
  283     14.24144    0.00000
  284     14.34896    0.00000
  285     14.40139    0.00000
  286     14.50063    0.00000
  287     14.54349    0.00000

Timing:                              incl.     excl.
-----------------------------------------------------------
Hamiltonian:                         5.715     0.000   0.0% |
 Atomic:                             2.268     0.005   0.0% |
  XC Correction:                     2.264     2.264   0.0% |
 Calculate atomic Hamiltonians:      0.028     0.028   0.0% |
 Communicate:                        0.000     0.000   0.0% |
 Hartree integrate/restrict:         0.015     0.015   0.0% |
 Initialize Hamiltonian:             0.000     0.000   0.0% |
 Poisson:                            2.760     2.760   0.0% |
 XC 3D grid:                         0.638     0.638   0.0% |
 vbar:                               0.005     0.005   0.0% |
LCAO initialization:                20.746     0.227   0.0% |
 LCAO eigensolver:                   2.081     0.000   0.0% |
  Calculate projections:             0.023     0.023   0.0% |
  DenseAtomicCorrection:             0.022     0.022   0.0% |
  Distribute overlap matrix:         0.000     0.000   0.0% |
  Orbital Layouts:                   0.058     0.058   0.0% |
  Potential matrix:                  1.978     1.978   0.0% |
 LCAO to grid:                      17.276    17.276   0.2% |
 Set positions (LCAO WFS):           1.162     0.000   0.0% |
  Basic WFS set positions:           0.001     0.001   0.0% |
  Basis functions set positions:     0.000     0.000   0.0% |
  TCI: Calculate S, T, P:            1.160     1.160   0.0% |
SCF-cycle:                        7449.206     0.169   0.0% |
 Davidson:                        6353.766  1085.044  14.5% |-----|
  Apply hamiltonian:               197.189   197.189   2.6% ||
  Subspace diag:                  1819.212     0.040   0.0% |
   calc_h_matrix:                  740.578   543.983   7.3% |--|
    Apply hamiltonian:             196.595   196.595   2.6% ||
   diagonalize:                      4.479     4.479   0.1% |
   rotate_psi:                    1074.115  1074.115  14.4% |-----|
  calc. matrices:                 2157.013  1960.931  26.2% |---------|
   Apply hamiltonian:              196.082   196.082   2.6% ||
  diagonalize:                      20.072    20.072   0.3% |
  rotate_psi:                     1075.236  1075.236  14.4% |-----|
 Density:                           23.763     0.005   0.0% |
  Atomic density matrices:           1.183     1.183   0.0% |
  Mix:                              11.234    11.234   0.2% |
  Multipole moments:                 0.259     0.259   0.0% |
  Pseudo density:                   11.082    11.078   0.1% |
   Symmetrize density:               0.004     0.004   0.0% |
 Hamiltonian:                     1066.041     0.027   0.0% |
  Atomic:                          472.623     0.957   0.0% |
   XC Correction:                  471.666   471.666   6.3% |--|
  Calculate atomic Hamiltonians:     6.919     6.919   0.1% |
  Communicate:                       0.002     0.002   0.0% |
  Hartree integrate/restrict:        4.099     4.099   0.1% |
  Poisson:                         447.573   447.573   6.0% |-|
  XC 3D grid:                      133.417   133.417   1.8% ||
  vbar:                              1.383     1.383   0.0% |
 Orthonormalize:                     5.466     0.000   0.0% |
  calc_s_matrix:                     1.573     1.573   0.0% |
  inverse-cholesky:                  0.004     0.004   0.0% |
  projections:                       1.278     1.278   0.0% |
  rotate_psi_s:                      2.611     2.611   0.0% |
Set symmetry:                        0.001     0.001   0.0% |
Other:                               1.263     1.263   0.0% |
-----------------------------------------------------------
Total:                                      7476.931 100.0%

Memory usage: 1.07 GiB
Date: Wed Mar 27 20:27:24 2019
