
  ___ ___ ___ _ _ _  
 |   |   |_  | | | | 
 | | | | | . | | | | 
 |__ |  _|___|_____|  1.4.0
 |___|_|             

User:   murakami@tssm1.eng.shizuoka.ac.jp
Date:   Tue Mar 26 21:04:05 2019
Arch:   x86_64
Pid:    31289
Python: 3.6.5
gpaw:   /home/murakami/.local/lib/python3.6/site-packages/gpaw
_gpaw:  /home/murakami/.local/lib/python3.6/site-packages/
        _gpaw.cpython-36m-x86_64-linux-gnu.so
ase:    /home/murakami/.local/lib/python3.6/site-packages/ase (version 3.16.2)
numpy:  /home/murakami/.local/lib/python3.6/site-packages/numpy (version 1.15.2)
scipy:  /home/murakami/.local/lib/python3.6/site-packages/scipy (version 1.1.0)
units:  Angstrom and eV
cores:  1

Input parameters:
  kpts: {size: (1, 1, 1)}
  maxiter: 300
  xc: PBE

System changes: positions, numbers, cell, pbc, initial_charges, initial_magmoms 

Initialize ...

Fe-setup:
  name: Iron
  id: 37abbd8d6c3c35915a9b583b742da910
  Z: 26
  valence: 8
  core: 18
  charge: 0.0
  file: /home/murakami/Public/gpaw-setups-0.9.20000/Fe.PBE.gz
  cutoffs: 1.06(comp), 2.06(filt), 2.67(core), lmax=2
  valence states:
                energy  radius
    4s(2.00)    -5.291   1.164
    4p(0.00)    -1.326   1.058
    3d(6.00)    -7.505   1.058
    *s          21.920   1.164
    *p          25.885   1.058
    *d          19.706   1.058

  Using partial waves for Fe as LCAO basis

O-setup:
  name: Oxygen
  id: 32ecd46bf208036f09c70b0ec9a88b78
  Z: 8
  valence: 6
  core: 2
  charge: 0.0
  file: /home/murakami/Public/gpaw-setups-0.9.20000/O.PBE.gz
  cutoffs: 0.67(comp), 1.17(filt), 0.83(core), lmax=2
  valence states:
                energy  radius
    2s(2.00)   -23.961   0.688
    2p(4.00)    -9.029   0.598
    *s           3.251   0.688
    *p          18.182   0.598
    *d           0.000   0.619

  Using partial waves for O as LCAO basis

F-setup:
  name: Fluorine
  id: 9cd46ba2a61e170ad72278be75b55cc0
  Z: 9
  valence: 7
  core: 2
  charge: 0.0
  file: /home/murakami/Public/gpaw-setups-0.9.20000/F.PBE.gz
  cutoffs: 0.64(comp), 1.14(filt), 0.74(core), lmax=2
  valence states:
                energy  radius
    2s(2.00)   -29.898   0.635
    2p(5.00)   -11.110   0.635
    *s          -2.687   0.635
    *p          16.102   0.635
    *d           0.000   0.635

  Using partial waves for F as LCAO basis

Reference energy: -319034.472395

Spin-paired calculation

Occupation numbers:
  Fermi-Dirac: width=0.1000 eV

Convergence criteria:
  Maximum total energy change: 0.0005 eV / electron
  Maximum integral of absolute density change: 0.0001 electrons
  Maximum integral of absolute eigenstate change: 4e-08 eV^2
  Maximum number of iterations: 300

Symmetries present (total): 1

  ( 1  0  0)
  ( 0  1  0)
  ( 0  0  1)

1 k-point (Gamma)
1 k-point in the irreducible part of the Brillouin zone
       k-points in crystal coordinates                weights
   0:     0.00000000    0.00000000    0.00000000          1/1

Wave functions: Uniform real-space grid
  Kinetic energy operator: 8*3+1=25 point O(h^6) finite-difference Laplacian
  ScaLapack parameters: grid=1x1, blocksize=None 

Eigensolver
   Davidson(niter=1, smin=None, normalize=True) 

Densities:
  Coarse grid: 28*24*52 grid
  Fine grid: 56*48*104 grid
  Total Charge: 0.000000 

Density mixing:
  Method: separate
  Backend: pulay
  Linear mixing parameter: 0.05
  Mixing with 5 old densities
  Damping of long wave oscillations: 50 

Hamiltonian:
  XC and Coulomb potentials evaluated on a 56*48*104 grid
  Using the PBE Exchange-Correlation functional
  Interpolation: tri-quintic (5. degree polynomial)
  Poisson solver: Jacobi solver with 4 multi-grid levels
    Coarsest grid: 7 x 6 x 13 points
    Stencil: 8*3+1=25 point O(h^6) finite-difference Laplacian
    Max iterations: 1000
    Tolerance: 2.000000e-10 

Memory estimate:
  Process memory now: 357.29 MiB
  Calculator: 140.46 MiB
    Density: 46.49 MiB
      Arrays: 6.93 MiB
      Localized functions: 36.90 MiB
      Mixer: 2.67 MiB
    Hamiltonian: 12.49 MiB
      Arrays: 4.53 MiB
      XC: 0.00 MiB
      Poisson: 5.17 MiB
      vbar: 2.79 MiB
    Wavefunctions: 81.47 MiB
      Arrays psit_nG: 36.26 MiB
      Eigensolver: 39.01 MiB
      Projections: 0.37 MiB
      Projectors: 5.84 MiB

Total number of cores used: 1

Number of atoms: 24
Number of atomic orbitals: 136
Number of bands in calculation: 136
Bands to converge: occupied states only
Number of valence electrons: 174

... initialized

Initializing position-dependent things.

Density initialized from atomic densities
Creating initial wave functions:
  136 bands from LCAO basis set

                                 
                                 
                                 
                                 
                Fe               
                     O           
                      Fe         
          FF   F    Fe           
                      F          
           Fe                    
           F       F             
              FF       Fe        
               Fe                
                                 
             FeF FO   F          
                                 
       F          Fe             
            F     F              
                                 
                                 
                                 
                                 
                                 

Positions:
   0 Fe     1.382184    1.189211    7.931544    ( 0.0000,  0.0000,  0.0000)
   1 Fe     1.416738    3.596231    2.484800    ( 0.0000,  0.0000,  0.0000)
   2 Fe     2.953178    1.172318    5.021961    ( 0.0000,  0.0000,  0.0000)
   3 Fe     2.942245    3.613124   10.465450    ( 0.0000,  0.0000,  0.0000)
   4 Fe     4.323386    1.106753    2.245125    ( 0.0000,  0.0000,  0.0000)
   5 Fe     4.323386    3.676406    7.703075    ( 0.0000,  0.0000,  0.0000)
   6 Fe     5.681193    1.155072   10.063461    ( 0.0000,  0.0000,  0.0000)
   7 Fe     5.681193    3.630370    4.725724    ( 0.0000,  0.0000,  0.0000)
   8 O      4.465826    0.279843    3.926077    ( 0.0000,  0.0000,  0.0000)
   9 O      4.465826    4.505599    9.363108    ( 0.0000,  0.0000,  0.0000)
  10 F      0.078582    0.275431    1.978610    ( 0.0000,  0.0000,  0.0000)
  11 F      0.078582    4.510011    7.420593    ( 0.0000,  0.0000,  0.0000)
  12 F      1.274802    2.150774    6.036975    ( 0.0000,  0.0000,  0.0000)
  13 F      1.274802    2.634668    0.594992    ( 0.0000,  0.0000,  0.0000)
  14 F      1.601658    0.247632    9.814751    ( 0.0000,  0.0000,  0.0000)
  15 F      1.601658    4.537810    4.372768    ( 0.0000,  0.0000,  0.0000)
  16 F      2.763996    2.170342    3.056782    ( 0.0000,  0.0000,  0.0000)
  17 F      2.763996    2.615100    8.498765    ( 0.0000,  0.0000,  0.0000)
  18 F      3.023495    0.170362    6.921037    ( 0.0000,  0.0000,  0.0000)
  19 F      2.997224    4.615080    1.482674    ( 0.0000,  0.0000,  0.0000)
  20 F      4.143358    2.120047    0.383672    ( 0.0000,  0.0000,  0.0000)
  21 F      4.143358    2.665395    5.862595    ( 0.0000,  0.0000,  0.0000)
  22 F      5.595240    2.184578    8.227532    ( 0.0000,  0.0000,  0.0000)
  23 F      5.583533    2.600864    2.709287    ( 0.0000,  0.0000,  0.0000)

Unit cell:
           periodic     x           y           z      points  spacing
  1. axis:    yes    5.735919    0.000000   -0.790267    28     0.2049
  2. axis:    yes    0.000000    4.785442    0.000000    24     0.1994
  3. axis:    yes    0.000000    0.000000   10.883966    52     0.2073

  Lengths:   5.790103   4.785442  10.883966
  Angles:   90.000000  97.844547  90.000000

Effective grid spacing dv^(1/3) = 0.2045

                     log10-error:    total        iterations:
           time      wfs    density  energy       fermi  poisson
iter:   1  21:04:17  +1.56   +inf  -150.006507    3      17     
iter:   2  21:04:20  +0.20   +inf  -150.639662    3             
iter:   3  21:04:25  -0.39   +inf  -150.820947    2             
iter:   4  21:04:30  -0.64  -1.14  -149.038721    3      8      
iter:   5  21:04:37  -0.35  -1.18  -157.657422    3      14     
iter:   6  21:04:43  -0.32  -1.18  -147.378275    3      15     
iter:   7  21:04:50  -0.71  -1.37  -145.959985    4      13     
iter:   8  21:04:56  -1.48  -1.42  -145.744493    3      10     
iter:   9  21:05:02  -1.52  -1.43  -146.146237    4      11     
iter:  10  21:05:08  -1.48  -1.42  -145.827647    3      12     
iter:  11  21:05:14  -1.48  -1.45  -146.549401    4      13     
iter:  12  21:05:19  -1.28  -1.43  -146.104427    3      13     
iter:  13  21:05:23  -1.59  -1.45  -145.572274    3      12     
iter:  14  21:05:28  -1.37  -1.50  -145.406866    4      10     
iter:  15  21:05:33  -1.41  -1.61  -146.096501    3      10     
iter:  16  21:05:38  -1.18  -1.60  -146.963436    4      13     
iter:  17  21:05:43  -1.30  -1.57  -146.298162    3      14     
iter:  18  21:05:48  -1.49  -1.64  -146.189552    3      13     
iter:  19  21:05:53  -1.30  -1.72  -146.861691    3      13     
iter:  20  21:05:57  -1.57  -1.61  -145.403009    4      12     
iter:  21  21:06:02  -2.38  -1.83  -145.344885    3      9      
iter:  22  21:06:07  -2.45  -1.88  -145.418023    3      10     
iter:  23  21:06:12  -2.33  -1.86  -145.466568    3      11     
iter:  24  21:06:17  -2.03  -1.87  -145.764679    3      12     
iter:  25  21:06:22  -1.91  -1.85  -145.473502    3      11     
iter:  26  21:06:26  -1.81  -2.02  -145.688711    3      10     
iter:  27  21:06:31  -1.73  -1.94  -145.505505    3      10     
iter:  28  21:06:36  -2.26  -1.99  -145.443234    2      10     
iter:  29  21:06:41  -2.44  -2.11  -145.370557    3      11     
iter:  30  21:06:46  -2.83  -2.10  -145.360721    3      9      
iter:  31  21:06:50  -2.90  -2.17  -145.334683    2      9      
iter:  32  21:06:55  -2.75  -2.21  -145.356752    3      7      
iter:  33  21:07:00  -2.28  -2.31  -145.457490    3      10     
iter:  34  21:07:05  -2.29  -2.18  -145.434981    2      11     
iter:  35  21:07:09  -2.33  -2.24  -145.556481    3      12     
iter:  36  21:07:14  -2.42  -2.10  -145.333916    3      11     
iter:  37  21:07:19  -2.89  -2.62  -145.334616    3      9      
iter:  38  21:07:24  -3.17  -2.47  -145.311901    3      7      
iter:  39  21:07:28  -3.90  -2.71  -145.313592    3      4      
iter:  40  21:07:33  -4.24  -2.74  -145.312509    2      5      
iter:  41  21:07:37  -3.62  -2.78  -145.316608    3      6      
iter:  42  21:07:42  -3.32  -2.89  -145.327436    2      8      
iter:  43  21:07:47  -3.33  -2.66  -145.322155    3      8      
iter:  44  21:07:51  -3.65  -2.86  -145.315076    2      7      
iter:  45  21:07:56  -3.94  -3.22  -145.313330    3      5      
iter:  46  21:08:00  -4.05  -3.08  -145.313067    2      6      
iter:  47  21:08:05  -4.63  -3.19  -145.312298    2      4      
iter:  48  21:08:09  -4.77  -3.36  -145.313184    2      4      
iter:  49  21:08:14  -4.74  -3.30  -145.313538    2      5      
iter:  50  21:08:18  -4.71  -3.39  -145.311900    2      4      
iter:  51  21:08:23  -4.74  -3.43  -145.313289    2      4      
iter:  52  21:08:28  -4.64  -3.34  -145.313108    3      5      
iter:  53  21:08:32  -4.68  -3.59  -145.312916    2      4      
iter:  54  21:08:37  -4.98  -3.53  -145.312431    2      4      
iter:  55  21:08:41  -5.43  -3.71  -145.312767    2      3      
iter:  56  21:08:46  -5.58  -3.83  -145.313110    2      3      
iter:  57  21:08:50  -5.57  -3.81  -145.312452    2      3      
iter:  58  21:08:54  -5.78  -3.82  -145.313210    2      3      
iter:  59  21:08:59  -5.72  -3.83  -145.312445    2      3      
iter:  60  21:09:03  -6.00  -3.86  -145.312769    2      2      
iter:  61  21:09:07  -6.03  -3.89  -145.313062    2      3      
iter:  62  21:09:11  -5.95  -3.83  -145.312639    2      3      
iter:  63  21:09:16  -6.02  -3.96  -145.313520    2      3      
iter:  64  21:09:20  -5.76  -3.98  -145.312937    2      3      
iter:  65  21:09:24  -6.15  -3.94  -145.313041    2      2      
iter:  66  21:09:28  -6.36  -4.09  -145.313105    2      3      
iter:  67  21:09:33  -6.17  -4.07  -145.313097    2      3      
iter:  68  21:09:37  -6.05  -4.09  -145.313175    2      3      
iter:  69  21:09:41  -6.53  -4.20  -145.313097    2      3      
iter:  70  21:09:46  -6.41  -4.26  -145.313281    2      3      
iter:  71  21:09:50  -6.41  -4.26  -145.313098    2      3      
iter:  72  21:09:54  -6.90  -4.42  -145.313415    2      2      
iter:  73  21:09:58  -6.94  -4.46  -145.313315    2      2      
iter:  74  21:10:03  -7.14  -4.56  -145.313174    2      1      
iter:  75  21:10:07  -7.30  -4.60  -145.313249    2      2      
iter:  76  21:10:11  -7.37  -4.60  -145.313544    2      1      
iter:  77  21:10:15  -7.56  -4.64  -145.313325    2      1      

Converged after 77 iterations.

Dipole moment: (-2.116796, 2.930991, -2.105772) |e|*Ang

Energy contributions relative to reference atoms: (reference = -319034.472395)

Kinetic:       +117.839263
Potential:     -131.749152
External:        +0.000000
XC:            -138.415737
Entropy (-ST):   -1.213712
Local:           +7.619157
--------------------------
Free energy:   -145.920181
Extrapolated:  -145.313325

Fermi level: 3.68852

 Band  Eigenvalues  Occupancy
    0    -20.87776    2.00000
    1    -20.63549    2.00000
    2    -20.46542    2.00000
    3    -20.37189    2.00000
    4    -20.34350    2.00000
    5    -20.23061    2.00000
    6    -20.18243    2.00000
    7    -20.11471    2.00000
    8    -20.09479    2.00000
    9    -20.07368    2.00000
   10    -20.00663    2.00000
   11    -19.99538    2.00000
   12    -19.96471    2.00000
   13    -19.90749    2.00000
   14    -14.45149    2.00000
   15    -14.32811    2.00000
   16     -4.24435    2.00000
   17     -3.88202    2.00000
   18     -3.45881    2.00000
   19     -3.35261    2.00000
   20     -3.31952    2.00000
   21     -3.19521    2.00000
   22     -3.10128    2.00000
   23     -3.01338    2.00000
   24     -2.89812    2.00000
   25     -2.83739    2.00000
   26     -2.77082    2.00000
   27     -2.74399    2.00000
   28     -2.64748    2.00000
   29     -2.56912    2.00000
   30     -2.51935    2.00000
   31     -2.47506    2.00000
   32     -2.44814    2.00000
   33     -2.40227    2.00000
   34     -2.36911    2.00000
   35     -2.32445    2.00000
   36     -2.27746    2.00000
   37     -2.24358    2.00000
   38     -2.17225    2.00000
   39     -2.14075    2.00000
   40     -2.06116    2.00000
   41     -2.02113    2.00000
   42     -1.98167    2.00000
   43     -1.87941    2.00000
   44     -1.81312    2.00000
   45     -1.76962    2.00000
   46     -1.47165    2.00000
   47     -1.41312    2.00000
   48     -1.39176    2.00000
   49     -1.22051    2.00000
   50     -1.19543    2.00000
   51     -1.13216    2.00000
   52     -1.05369    2.00000
   53     -1.02158    2.00000
   54     -0.92549    2.00000
   55     -0.76916    2.00000
   56     -0.73851    2.00000
   57     -0.67495    2.00000
   58     -0.61022    2.00000
   59     -0.47314    2.00000
   60     -0.32395    2.00000
   61     -0.21424    2.00000
   62      0.56785    2.00000
   63      0.67159    2.00000
   64      2.91342    1.99914
   65      2.93119    1.99897
   66      3.00420    1.99787
   67      3.00759    1.99780
   68      3.02449    1.99739
   69      3.04561    1.99678
   70      3.06889    1.99593
   71      3.11060    1.99384
   72      3.13583    1.99207
   73      3.15783    1.99013
   74      3.23049    1.97970
   75      3.24719    1.97606
   76      3.26941    1.97019
   77      3.27942    1.96710
   78      3.29309    1.96237
   79      3.34860    1.93536
   80      3.37966    1.91284
   81      3.38636    1.90707
   82      3.43862    1.84814
   83      3.48371    1.77150
   84      3.56713    1.54195
   85      3.58418    1.47901
   86      3.61442    1.35440
   87      3.71745    0.85631
   88      3.73166    0.78754
   89      3.83403    0.37841
   90      3.94583    0.14178
   91      3.95056    0.13566
   92      4.03365    0.06146
   93      4.08255    0.03814
   94      4.15674    0.01835
   95      4.17902    0.01471
   96      4.41317    0.00142
   97      4.50729    0.00056
   98      4.83189    0.00002
   99      4.93875    0.00001
  100      4.98322    0.00000
  101      5.03031    0.00000
  102      5.11578    0.00000
  103      5.30221    0.00000
  104      6.19672    0.00000
  105      8.00011    0.00000
  106      8.44407    0.00000
  107     11.00849    0.00000
  108     11.34492    0.00000
  109     11.36096    0.00000
  110     11.50184    0.00000
  111     11.76243    0.00000
  112     11.89650    0.00000
  113     12.03673    0.00000
  114     12.17774    0.00000
  115     12.84330    0.00000
  116     13.22184    0.00000
  117     13.25057    0.00000
  118     13.55105    0.00000
  119     13.84349    0.00000
  120     14.56623    0.00000
  121     14.97700    0.00000
  122     15.06904    0.00000
  123     15.14880    0.00000
  124     15.31021    0.00000
  125     15.76163    0.00000
  126     15.83682    0.00000
  127     15.86826    0.00000
  128     15.90958    0.00000
  129     15.96787    0.00000
  130     16.11738    0.00000
  131     16.18725    0.00000
  132     16.21678    0.00000
  133     16.33892    0.00000
  134     16.41851    0.00000
  135     16.52373    0.00000

Timing:                              incl.     excl.
-----------------------------------------------------------
Hamiltonian:                         1.994     0.000   0.0% |
 Atomic:                             1.072     0.003   0.0% |
  XC Correction:                     1.070     1.070   0.3% |
 Calculate atomic Hamiltonians:      0.015     0.015   0.0% |
 Communicate:                        0.000     0.000   0.0% |
 Hartree integrate/restrict:         0.007     0.007   0.0% |
 Initialize Hamiltonian:             0.000     0.000   0.0% |
 Poisson:                            0.679     0.679   0.2% |
 XC 3D grid:                         0.219     0.219   0.1% |
 vbar:                               0.002     0.002   0.0% |
LCAO initialization:                 6.059     0.238   0.1% |
 LCAO eigensolver:                   0.958     0.000   0.0% |
  Calculate projections:             0.003     0.003   0.0% |
  DenseAtomicCorrection:             0.003     0.003   0.0% |
  Distribute overlap matrix:         0.000     0.000   0.0% |
  Orbital Layouts:                   0.009     0.009   0.0% |
  Potential matrix:                  0.942     0.942   0.3% |
 LCAO to grid:                       4.226     4.226   1.1% |
 Set positions (LCAO WFS):           0.638     0.000   0.0% |
  Basic WFS set positions:           0.001     0.001   0.0% |
  Basis functions set positions:     0.000     0.000   0.0% |
  TCI: Calculate S, T, P:            0.637     0.637   0.2% |
SCF-cycle:                         361.835     0.052   0.0% |
 Davidson:                         236.818    65.929  17.8% |------|
  Apply hamiltonian:                 8.445     8.445   2.3% ||
  Subspace diag:                    58.483     0.012   0.0% |
   calc_h_matrix:                   24.778    16.376   4.4% |-|
    Apply hamiltonian:               8.402     8.402   2.3% ||
   diagonalize:                      0.331     0.331   0.1% |
   rotate_psi:                      33.361    33.361   9.0% |---|
  calc. matrices:                   69.301    60.665  16.4% |------|
   Apply hamiltonian:                8.635     8.635   2.3% ||
  diagonalize:                       1.361     1.361   0.4% |
  rotate_psi:                       33.300    33.300   9.0% |---|
 Density:                            2.348     0.002   0.0% |
  Atomic density matrices:           0.179     0.179   0.0% |
  Mix:                               1.522     1.522   0.4% |
  Multipole moments:                 0.054     0.054   0.0% |
  Pseudo density:                    0.591     0.590   0.2% |
   Symmetrize density:               0.001     0.001   0.0% |
 Hamiltonian:                      121.943     0.008   0.0% |
  Atomic:                           81.555     0.190   0.1% |
   XC Correction:                   81.365    81.365  21.9% |--------|
  Calculate atomic Hamiltonians:     1.027     1.027   0.3% |
  Communicate:                       0.001     0.001   0.0% |
  Hartree integrate/restrict:        0.421     0.421   0.1% |
  Poisson:                          21.852    21.852   5.9% |-|
  XC 3D grid:                       16.910    16.910   4.6% |-|
  vbar:                              0.169     0.169   0.0% |
 Orthonormalize:                     0.674     0.000   0.0% |
  calc_s_matrix:                     0.150     0.150   0.0% |
  inverse-cholesky:                  0.001     0.001   0.0% |
  projections:                       0.304     0.304   0.1% |
  rotate_psi_s:                      0.219     0.219   0.1% |
Set symmetry:                        0.001     0.001   0.0% |
Other:                               0.887     0.887   0.2% |
-----------------------------------------------------------
Total:                                       370.775 100.0%

Memory usage: 357.29 MiB
Date: Tue Mar 26 21:10:15 2019
