
  ___ ___ ___ _ _ _  
 |   |   |_  | | | | 
 | | | | | . | | | | 
 |__ |  _|___|_____|  1.4.0
 |___|_|             

User:   murakami@tssm1.eng.shizuoka.ac.jp
Date:   Tue Mar 26 19:17:12 2019
Arch:   x86_64
Pid:    31289
Python: 3.6.5
gpaw:   /home/murakami/.local/lib/python3.6/site-packages/gpaw
_gpaw:  /home/murakami/.local/lib/python3.6/site-packages/
        _gpaw.cpython-36m-x86_64-linux-gnu.so
ase:    /home/murakami/.local/lib/python3.6/site-packages/ase (version 3.16.2)
numpy:  /home/murakami/.local/lib/python3.6/site-packages/numpy (version 1.15.2)
scipy:  /home/murakami/.local/lib/python3.6/site-packages/scipy (version 1.1.0)
units:  Angstrom and eV
cores:  1

Input parameters:
  kpts: {size: (1, 1, 1)}
  maxiter: 300
  xc: PBE

System changes: positions, numbers, cell, pbc, initial_charges, initial_magmoms 

Initialize ...

Fe-setup:
  name: Iron
  id: 37abbd8d6c3c35915a9b583b742da910
  Z: 26
  valence: 8
  core: 18
  charge: 0.0
  file: /home/murakami/Public/gpaw-setups-0.9.20000/Fe.PBE.gz
  cutoffs: 1.06(comp), 2.06(filt), 2.67(core), lmax=2
  valence states:
                energy  radius
    4s(2.00)    -5.291   1.164
    4p(0.00)    -1.326   1.058
    3d(6.00)    -7.505   1.058
    *s          21.920   1.164
    *p          25.885   1.058
    *d          19.706   1.058

  Using partial waves for Fe as LCAO basis

O-setup:
  name: Oxygen
  id: 32ecd46bf208036f09c70b0ec9a88b78
  Z: 8
  valence: 6
  core: 2
  charge: 0.0
  file: /home/murakami/Public/gpaw-setups-0.9.20000/O.PBE.gz
  cutoffs: 0.67(comp), 1.17(filt), 0.83(core), lmax=2
  valence states:
                energy  radius
    2s(2.00)   -23.961   0.688
    2p(4.00)    -9.029   0.598
    *s           3.251   0.688
    *p          18.182   0.598
    *d           0.000   0.619

  Using partial waves for O as LCAO basis

F-setup:
  name: Fluorine
  id: 9cd46ba2a61e170ad72278be75b55cc0
  Z: 9
  valence: 7
  core: 2
  charge: 0.0
  file: /home/murakami/Public/gpaw-setups-0.9.20000/F.PBE.gz
  cutoffs: 0.64(comp), 1.14(filt), 0.74(core), lmax=2
  valence states:
                energy  radius
    2s(2.00)   -29.898   0.635
    2p(5.00)   -11.110   0.635
    *s          -2.687   0.635
    *p          16.102   0.635
    *d           0.000   0.635

  Using partial waves for F as LCAO basis

Reference energy: -319034.472395

Spin-paired calculation

Occupation numbers:
  Fermi-Dirac: width=0.1000 eV

Convergence criteria:
  Maximum total energy change: 0.0005 eV / electron
  Maximum integral of absolute density change: 0.0001 electrons
  Maximum integral of absolute eigenstate change: 4e-08 eV^2
  Maximum number of iterations: 300

Symmetries present (total): 1

  ( 1  0  0)
  ( 0  1  0)
  ( 0  0  1)

1 k-point (Gamma)
1 k-point in the irreducible part of the Brillouin zone
       k-points in crystal coordinates                weights
   0:     0.00000000    0.00000000    0.00000000          1/1

Wave functions: Uniform real-space grid
  Kinetic energy operator: 12*3+1=37 point O(h^6) finite-difference Laplacian
  ScaLapack parameters: grid=1x1, blocksize=None 

Eigensolver
   Davidson(niter=1, smin=None, normalize=True) 

Densities:
  Coarse grid: 28*24*56 grid
  Fine grid: 56*48*112 grid
  Total Charge: 0.000000 

Density mixing:
  Method: separate
  Backend: pulay
  Linear mixing parameter: 0.05
  Mixing with 5 old densities
  Damping of long wave oscillations: 50 

Hamiltonian:
  XC and Coulomb potentials evaluated on a 56*48*112 grid
  Using the PBE Exchange-Correlation functional
  Interpolation: tri-quintic (5. degree polynomial)
  Poisson solver: Jacobi solver with 4 multi-grid levels
    Coarsest grid: 7 x 6 x 14 points
    Stencil: 12*3+1=37 point O(h^6) finite-difference Laplacian
    Max iterations: 1000
    Tolerance: 2.000000e-10 

Memory estimate:
  Process memory now: 337.94 MiB
  Calculator: 150.76 MiB
    Density: 49.78 MiB
      Arrays: 7.46 MiB
      Localized functions: 39.44 MiB
      Mixer: 2.87 MiB
    Hamiltonian: 13.43 MiB
      Arrays: 4.88 MiB
      XC: 0.00 MiB
      Poisson: 5.56 MiB
      vbar: 2.99 MiB
    Wavefunctions: 87.55 MiB
      Arrays psit_nG: 39.05 MiB
      Eigensolver: 41.90 MiB
      Projections: 0.37 MiB
      Projectors: 6.24 MiB

Total number of cores used: 1

Number of atoms: 24
Number of atomic orbitals: 136
Number of bands in calculation: 136
Bands to converge: occupied states only
Number of valence electrons: 174

... initialized

Initializing position-dependent things.

Density initialized from atomic densities
Creating initial wave functions:
  136 bands from LCAO basis set

                                 
                                 
                                 
                                 
                Fe               
                     O           
                      Fe         
          FF   F    Fe           
                      F          
           Fe                    
           F       F             
              F        Fe        
               Fe                
                                 
             FeF FO   F          
                                 
       F          Fe             
            F     F              
                                 
                                 
                                 
                                 
                                 

Positions:
   0 Fe     1.438815    1.187929    7.983795    ( 0.0000,  0.0000,  0.0000)
   1 Fe     1.416738    3.595808    2.504616    ( 0.0000,  0.0000,  0.0000)
   2 Fe     2.953178    1.171462    5.062101    ( 0.0000,  0.0000,  0.0000)
   3 Fe     2.953178    3.611408   10.544321    ( 0.0000,  0.0000,  0.0000)
   4 Fe     4.323386    1.106298    2.308409    ( 0.0000,  0.0000,  0.0000)
   5 Fe     4.323386    3.677375    7.790629    ( 0.0000,  0.0000,  0.0000)
   6 Fe     5.723248    1.120985   10.112874    ( 0.0000,  0.0000,  0.0000)
   7 Fe     5.681193    3.629517    4.661436    ( 0.0000,  0.0000,  0.0000)
   8 O      4.465826    0.243700    3.959655    ( 0.0000,  0.0000,  0.0000)
   9 O      4.420455    4.504023    9.448127    ( 0.0000,  0.0000,  0.0000)
  10 F      0.078582    0.275117    1.993320    ( 0.0000,  0.0000,  0.0000)
  11 F      0.078582    4.508838    7.475540    ( 0.0000,  0.0000,  0.0000)
  12 F      1.274802    2.149796    6.063569    ( 0.0000,  0.0000,  0.0000)
  13 F      1.274802    2.634547    0.600690    ( 0.0000,  0.0000,  0.0000)
  14 F      1.638924    0.246048    9.883817    ( 0.0000,  0.0000,  0.0000)
  15 F      1.601658    4.537085    4.406731    ( 0.0000,  0.0000,  0.0000)
  16 F      2.776466    2.169799    3.080481    ( 0.0000,  0.0000,  0.0000)
  17 F      2.763996    2.613699    8.564420    ( 0.0000,  0.0000,  0.0000)
  18 F      2.956482    0.169206    6.966191    ( 0.0000,  0.0000,  0.0000)
  19 F      2.997224    4.614781    1.496690    ( 0.0000,  0.0000,  0.0000)
  20 F      4.116256    2.119890    0.431677    ( 0.0000,  0.0000,  0.0000)
  21 F      4.143358    2.664380    5.910164    ( 0.0000,  0.0000,  0.0000)
  22 F      5.583533    2.183170    8.217228    ( 0.0000,  0.0000,  0.0000)
  23 F      5.583533    2.600315    2.735007    ( 0.0000,  0.0000,  0.0000)

Unit cell:
           periodic     x           y           z      points  spacing
  1. axis:    yes    5.735919    0.000000   -0.790267    28     0.2049
  2. axis:    yes    0.000000    4.785442    0.000000    24     0.1994
  3. axis:    yes    0.000000   -0.001718   10.964441    56     0.1940

  Lengths:   5.790103   4.785442  10.964441
  Angles:   90.008978  97.844547  90.000000

Effective grid spacing dv^(1/3) = 0.2000

                     log10-error:    total        iterations:
           time      wfs    density  energy       fermi  poisson
iter:   1  19:17:25  +1.56   +inf  -149.075528    3      17     
iter:   2  19:17:29  +0.20   +inf  -149.701661    3             
iter:   3  19:17:32  -0.40   +inf  -149.880023    2             
iter:   4  19:17:37  -0.64  -1.14  -148.158182    3      8      
iter:   5  19:17:43  -0.40  -1.18  -156.899076    4      13     
iter:   6  19:17:48  -0.31  -1.18  -145.264043    4      13     
iter:   7  19:17:54  -0.70  -1.42  -144.935089    3      12     
iter:   8  19:17:59  -1.46  -1.43  -145.076565    4      12     
iter:   9  19:18:05  -1.20  -1.43  -146.675097    4      14     
iter:  10  19:18:10  -0.97  -1.38  -145.016275    4      13     
iter:  11  19:18:16  -1.42  -1.46  -146.123778    4      14     
iter:  12  19:18:21  -1.39  -1.44  -144.704345    3      14     
iter:  13  19:18:27  -1.46  -1.52  -145.391294    4      11     
iter:  14  19:18:32  -1.36  -1.52  -145.983796    3      14     
iter:  15  19:18:38  -1.34  -1.48  -144.816943    4      14     
iter:  16  19:18:43  -1.29  -1.66  -146.094647    3      12     
iter:  17  19:18:49  -1.21  -1.54  -145.612495    3      14     
iter:  18  19:18:54  -1.33  -1.65  -145.101932    4      14     
iter:  19  19:19:00  -1.70  -1.67  -144.605363    3      10     
iter:  20  19:19:05  -2.34  -1.75  -144.534942    2      11     
iter:  21  19:19:11  -2.72  -1.78  -144.478601    3      10     
iter:  22  19:19:16  -2.55  -1.80  -144.556617    3      8      
iter:  23  19:19:22  -2.02  -1.82  -144.726543    3      12     
iter:  24  19:19:27  -1.93  -1.81  -144.785733    3      12     
iter:  25  19:19:32  -1.89  -1.83  -144.752154    3      8      
iter:  26  19:19:38  -1.99  -1.95  -144.549293    3      11     
iter:  27  19:19:43  -1.83  -2.19  -145.583141    3      14     
iter:  28  19:19:49  -1.81  -1.78  -144.515974    3      13     
iter:  29  19:19:54  -2.53  -2.32  -144.538436    3      10     
iter:  30  19:20:00  -2.66  -2.24  -144.471492    3      10     
iter:  31  19:20:05  -3.15  -2.37  -144.459579    3      5      
iter:  32  19:20:10  -3.83  -2.44  -144.457586    3      4      
iter:  33  19:20:15  -2.94  -2.45  -144.533125    3      10     
iter:  34  19:20:20  -2.78  -2.27  -144.483672    3      10     
iter:  35  19:20:25  -2.91  -2.43  -144.468926    3      6      
iter:  36  19:20:31  -3.16  -2.52  -144.459605    3      8      
iter:  37  19:20:36  -2.92  -2.62  -144.514678    3      10     
iter:  38  19:20:41  -2.83  -2.40  -144.458503    3      9      
iter:  39  19:20:47  -3.60  -2.70  -144.454367    3      7      
iter:  40  19:20:52  -3.52  -2.77  -144.451141    3      7      
iter:  41  19:20:57  -3.66  -2.73  -144.454073    2      4      
iter:  42  19:21:02  -4.10  -2.78  -144.452623    3      6      
iter:  43  19:21:07  -3.98  -2.83  -144.453611    3      6      
iter:  44  19:21:12  -3.48  -2.97  -144.448766    3      6      
iter:  45  19:21:17  -3.62  -2.87  -144.453440    3      6      
iter:  46  19:21:22  -4.04  -2.96  -144.451099    2      6      
iter:  47  19:21:27  -4.17  -3.16  -144.448659    2      4      
iter:  48  19:21:32  -4.11  -3.12  -144.449308    2      6      
iter:  49  19:21:36  -4.37  -3.01  -144.448285    2      5      
iter:  50  19:21:41  -4.76  -3.31  -144.450196    2      4      
iter:  51  19:21:46  -4.70  -3.32  -144.447764    2      4      
iter:  52  19:21:51  -5.10  -3.34  -144.447544    2      3      
iter:  53  19:21:55  -5.09  -3.41  -144.448827    2      4      
iter:  54  19:22:00  -4.41  -3.40  -144.449387    3      5      
iter:  55  19:22:05  -4.25  -3.41  -144.448160    3      5      
iter:  56  19:22:10  -4.44  -3.40  -144.447400    3      5      
iter:  57  19:22:15  -4.97  -3.70  -144.448483    3      4      
iter:  58  19:22:20  -5.01  -3.86  -144.448910    2      3      
iter:  59  19:22:24  -5.39  -3.77  -144.447830    2      3      
iter:  60  19:22:29  -5.64  -3.89  -144.448456    2      3      
iter:  61  19:22:34  -6.18  -4.03  -144.448419    2      3      
iter:  62  19:22:38  -6.02  -4.06  -144.448819    2      2      
iter:  63  19:22:43  -6.15  -4.05  -144.448118    2      3      
iter:  64  19:22:48  -5.94  -4.08  -144.448755    2      3      
iter:  65  19:22:53  -6.20  -4.07  -144.448471    2      3      
iter:  66  19:22:57  -6.30  -4.27  -144.448629    2      3      
iter:  67  19:23:04  -6.52  -4.18  -144.448476    2      3      
iter:  68  19:23:10  -6.57  -4.41  -144.448739    2      2      
iter:  69  19:23:17  -6.45  -4.33  -144.448635    2      3      
iter:  70  19:23:23  -6.60  -4.47  -144.448785    2      2      
iter:  71  19:23:29  -6.77  -4.59  -144.448388    2      2      
iter:  72  19:23:37  -6.75  -4.53  -144.448624    2      2      
iter:  73  19:23:44  -7.10  -4.53  -144.448926    2      1      
iter:  74  19:23:50  -7.17  -4.76  -144.448705    2      2      
iter:  75  19:23:57  -7.31  -4.68  -144.448539    2      1      
iter:  76  19:24:03  -7.44  -4.74  -144.448667    2      1      

Converged after 76 iterations.

Dipole moment: (-2.859494, 2.416269, -0.008290) |e|*Ang

Energy contributions relative to reference atoms: (reference = -319034.472395)

Kinetic:       +112.256099
Potential:     -125.937428
External:        +0.000000
XC:            -137.136153
Entropy (-ST):   -1.228983
Local:           +6.983306
--------------------------
Free energy:   -145.063158
Extrapolated:  -144.448667

Fermi level: 3.59678

 Band  Eigenvalues  Occupancy
    0    -20.72298    2.00000
    1    -20.63059    2.00000
    2    -20.45649    2.00000
    3    -20.36740    2.00000
    4    -20.33004    2.00000
    5    -20.32105    2.00000
    6    -20.29176    2.00000
    7    -20.25283    2.00000
    8    -20.21707    2.00000
    9    -20.17894    2.00000
   10    -20.01224    2.00000
   11    -20.01148    2.00000
   12    -19.89841    2.00000
   13    -19.75107    2.00000
   14    -14.65535    2.00000
   15    -14.59259    2.00000
   16     -4.21956    2.00000
   17     -3.87374    2.00000
   18     -3.48746    2.00000
   19     -3.32646    2.00000
   20     -3.27039    2.00000
   21     -3.12005    2.00000
   22     -3.06442    2.00000
   23     -3.02243    2.00000
   24     -2.95484    2.00000
   25     -2.93578    2.00000
   26     -2.81464    2.00000
   27     -2.68050    2.00000
   28     -2.66460    2.00000
   29     -2.64080    2.00000
   30     -2.53466    2.00000
   31     -2.48907    2.00000
   32     -2.44006    2.00000
   33     -2.41491    2.00000
   34     -2.37029    2.00000
   35     -2.33836    2.00000
   36     -2.29305    2.00000
   37     -2.26727    2.00000
   38     -2.11863    2.00000
   39     -2.10174    2.00000
   40     -2.08082    2.00000
   41     -2.04220    2.00000
   42     -2.00963    2.00000
   43     -1.98167    2.00000
   44     -1.78822    2.00000
   45     -1.69576    2.00000
   46     -1.53018    2.00000
   47     -1.49812    2.00000
   48     -1.42544    2.00000
   49     -1.34051    2.00000
   50     -1.17121    2.00000
   51     -1.11505    2.00000
   52     -1.08035    2.00000
   53     -1.06458    2.00000
   54     -0.90208    2.00000
   55     -0.86746    2.00000
   56     -0.78749    2.00000
   57     -0.75848    2.00000
   58     -0.60565    2.00000
   59     -0.54826    2.00000
   60     -0.43254    2.00000
   61     -0.36782    2.00000
   62      0.36628    2.00000
   63      0.42806    2.00000
   64      2.82968    1.99907
   65      2.84717    1.99889
   66      2.91072    1.99791
   67      2.91932    1.99772
   68      2.94012    1.99719
   69      2.95455    1.99676
   70      2.98323    1.99568
   71      3.01733    1.99393
   72      3.05580    1.99109
   73      3.06997    1.98975
   74      3.12262    1.98270
   75      3.13742    1.97997
   76      3.17556    1.97081
   77      3.19778    1.96367
   78      3.22940    1.95049
   79      3.28046    1.91885
   80      3.28946    1.91155
   81      3.30486    1.89757
   82      3.34715    1.84776
   83      3.38812    1.77919
   84      3.47527    1.54242
   85      3.49451    1.47100
   86      3.52920    1.32560
   87      3.61585    0.90495
   88      3.62805    0.84489
   89      3.75969    0.32790
   90      3.85338    0.14272
   91      3.87516    0.11641
   92      3.92082    0.07535
   93      3.97021    0.04667
   94      4.05112    0.02105
   95      4.06795    0.01782
   96      4.29081    0.00193
   97      4.39085    0.00071
   98      4.74424    0.00002
   99      4.85683    0.00001
  100      4.89903    0.00000
  101      4.91932    0.00000
  102      4.99468    0.00000
  103      5.17338    0.00000
  104      6.10546    0.00000
  105      7.87048    0.00000
  106      8.32628    0.00000
  107     10.88439    0.00000
  108     11.21296    0.00000
  109     11.22695    0.00000
  110     11.38302    0.00000
  111     11.61780    0.00000
  112     11.75777    0.00000
  113     11.89711    0.00000
  114     12.08125    0.00000
  115     12.70858    0.00000
  116     13.05529    0.00000
  117     13.08694    0.00000
  118     13.49645    0.00000
  119     13.73784    0.00000
  120     14.47885    0.00000
  121     14.86259    0.00000
  122     14.93564    0.00000
  123     15.02544    0.00000
  124     15.20424    0.00000
  125     15.61078    0.00000
  126     15.70468    0.00000
  127     15.74157    0.00000
  128     15.79680    0.00000
  129     15.87964    0.00000
  130     15.89354    0.00000
  131     16.05046    0.00000
  132     16.09632    0.00000
  133     16.17178    0.00000
  134     16.24358    0.00000
  135     16.33379    0.00000

Timing:                              incl.     excl.
-----------------------------------------------------------
Hamiltonian:                         2.295     0.000   0.0% |
 Atomic:                             1.072     0.003   0.0% |
  XC Correction:                     1.069     1.069   0.3% |
 Calculate atomic Hamiltonians:      0.013     0.013   0.0% |
 Communicate:                        0.000     0.000   0.0% |
 Hartree integrate/restrict:         0.004     0.004   0.0% |
 Initialize Hamiltonian:             0.000     0.000   0.0% |
 Poisson:                            0.968     0.968   0.2% |
 XC 3D grid:                         0.236     0.236   0.1% |
 vbar:                               0.002     0.002   0.0% |
LCAO initialization:                 6.253     0.230   0.1% |
 LCAO eigensolver:                   1.010     0.000   0.0% |
  Calculate projections:             0.003     0.003   0.0% |
  DenseAtomicCorrection:             0.003     0.003   0.0% |
  Distribute overlap matrix:         0.000     0.000   0.0% |
  Orbital Layouts:                   0.009     0.009   0.0% |
  Potential matrix:                  0.995     0.995   0.2% |
 LCAO to grid:                       4.382     4.382   1.1% |
 Set positions (LCAO WFS):           0.631     0.000   0.0% |
  Basic WFS set positions:           0.001     0.001   0.0% |
  Basis functions set positions:     0.000     0.000   0.0% |
  TCI: Calculate S, T, P:            0.630     0.630   0.2% |
SCF-cycle:                         401.553     0.064   0.0% |
 Davidson:                         265.894    72.451  17.6% |------|
  Apply hamiltonian:                13.061    13.061   3.2% ||
  Subspace diag:                    66.438     0.012   0.0% |
   calc_h_matrix:                   30.204    17.692   4.3% |-|
    Apply hamiltonian:              12.513    12.513   3.0% ||
   diagonalize:                      0.315     0.315   0.1% |
   rotate_psi:                      35.906    35.906   8.7% |--|
  calc. matrices:                   76.932    64.142  15.6% |-----|
   Apply hamiltonian:               12.790    12.790   3.1% ||
  diagonalize:                       1.331     1.331   0.3% |
  rotate_psi:                       35.681    35.681   8.7% |--|
 Density:                            2.538     0.002   0.0% |
  Atomic density matrices:           0.177     0.177   0.0% |
  Mix:                               1.629     1.629   0.4% |
  Multipole moments:                 0.069     0.069   0.0% |
  Pseudo density:                    0.662     0.660   0.2% |
   Symmetrize density:               0.001     0.001   0.0% |
 Hamiltonian:                      132.321     0.008   0.0% |
  Atomic:                           82.021     0.196   0.0% |
   XC Correction:                   81.825    81.825  19.9% |-------|
  Calculate atomic Hamiltonians:     1.029     1.029   0.3% |
  Communicate:                       0.001     0.001   0.0% |
  Hartree integrate/restrict:        0.458     0.458   0.1% |
  Poisson:                          30.517    30.517   7.4% |--|
  XC 3D grid:                       18.107    18.107   4.4% |-|
  vbar:                              0.181     0.181   0.0% |
 Orthonormalize:                     0.737     0.000   0.0% |
  calc_s_matrix:                     0.157     0.157   0.0% |
  inverse-cholesky:                  0.001     0.001   0.0% |
  projections:                       0.345     0.345   0.1% |
  rotate_psi_s:                      0.234     0.234   0.1% |
Set symmetry:                        0.001     0.001   0.0% |
Other:                               0.875     0.875   0.2% |
-----------------------------------------------------------
Total:                                       410.977 100.0%

Memory usage: 344.82 MiB
Date: Tue Mar 26 19:24:03 2019
