
  ___ ___ ___ _ _ _  
 |   |   |_  | | | | 
 | | | | | . | | | | 
 |__ |  _|___|_____|  1.4.0
 |___|_|             

User:   murakami@tssm1.eng.shizuoka.ac.jp
Date:   Tue Mar 26 21:16:28 2019
Arch:   x86_64
Pid:    31289
Python: 3.6.5
gpaw:   /home/murakami/.local/lib/python3.6/site-packages/gpaw
_gpaw:  /home/murakami/.local/lib/python3.6/site-packages/
        _gpaw.cpython-36m-x86_64-linux-gnu.so
ase:    /home/murakami/.local/lib/python3.6/site-packages/ase (version 3.16.2)
numpy:  /home/murakami/.local/lib/python3.6/site-packages/numpy (version 1.15.2)
scipy:  /home/murakami/.local/lib/python3.6/site-packages/scipy (version 1.1.0)
units:  Angstrom and eV
cores:  1

Input parameters:
  kpts: {size: (1, 1, 1)}
  maxiter: 300
  xc: PBE

System changes: positions, numbers, cell, pbc, initial_charges, initial_magmoms 

Initialize ...

Fe-setup:
  name: Iron
  id: 37abbd8d6c3c35915a9b583b742da910
  Z: 26
  valence: 8
  core: 18
  charge: 0.0
  file: /home/murakami/Public/gpaw-setups-0.9.20000/Fe.PBE.gz
  cutoffs: 1.06(comp), 2.06(filt), 2.67(core), lmax=2
  valence states:
                energy  radius
    4s(2.00)    -5.291   1.164
    4p(0.00)    -1.326   1.058
    3d(6.00)    -7.505   1.058
    *s          21.920   1.164
    *p          25.885   1.058
    *d          19.706   1.058

  Using partial waves for Fe as LCAO basis

O-setup:
  name: Oxygen
  id: 32ecd46bf208036f09c70b0ec9a88b78
  Z: 8
  valence: 6
  core: 2
  charge: 0.0
  file: /home/murakami/Public/gpaw-setups-0.9.20000/O.PBE.gz
  cutoffs: 0.67(comp), 1.17(filt), 0.83(core), lmax=2
  valence states:
                energy  radius
    2s(2.00)   -23.961   0.688
    2p(4.00)    -9.029   0.598
    *s           3.251   0.688
    *p          18.182   0.598
    *d           0.000   0.619

  Using partial waves for O as LCAO basis

F-setup:
  name: Fluorine
  id: 9cd46ba2a61e170ad72278be75b55cc0
  Z: 9
  valence: 7
  core: 2
  charge: 0.0
  file: /home/murakami/Public/gpaw-setups-0.9.20000/F.PBE.gz
  cutoffs: 0.64(comp), 1.14(filt), 0.74(core), lmax=2
  valence states:
                energy  radius
    2s(2.00)   -29.898   0.635
    2p(5.00)   -11.110   0.635
    *s          -2.687   0.635
    *p          16.102   0.635
    *d           0.000   0.635

  Using partial waves for F as LCAO basis

Reference energy: -319034.472395

Spin-paired calculation

Occupation numbers:
  Fermi-Dirac: width=0.1000 eV

Convergence criteria:
  Maximum total energy change: 0.0005 eV / electron
  Maximum integral of absolute density change: 0.0001 electrons
  Maximum integral of absolute eigenstate change: 4e-08 eV^2
  Maximum number of iterations: 300

Symmetries present (total): 1

  ( 1  0  0)
  ( 0  1  0)
  ( 0  0  1)

1 k-point (Gamma)
1 k-point in the irreducible part of the Brillouin zone
       k-points in crystal coordinates                weights
   0:     0.00000000    0.00000000    0.00000000          1/1

Wave functions: Uniform real-space grid
  Kinetic energy operator: 8*3+1=25 point O(h^6) finite-difference Laplacian
  ScaLapack parameters: grid=1x1, blocksize=None 

Eigensolver
   Davidson(niter=1, smin=None, normalize=True) 

Densities:
  Coarse grid: 28*24*52 grid
  Fine grid: 56*48*104 grid
  Total Charge: 0.000000 

Density mixing:
  Method: separate
  Backend: pulay
  Linear mixing parameter: 0.05
  Mixing with 5 old densities
  Damping of long wave oscillations: 50 

Hamiltonian:
  XC and Coulomb potentials evaluated on a 56*48*104 grid
  Using the PBE Exchange-Correlation functional
  Interpolation: tri-quintic (5. degree polynomial)
  Poisson solver: Jacobi solver with 4 multi-grid levels
    Coarsest grid: 7 x 6 x 13 points
    Stencil: 8*3+1=25 point O(h^6) finite-difference Laplacian
    Max iterations: 1000
    Tolerance: 2.000000e-10 

Memory estimate:
  Process memory now: 357.29 MiB
  Calculator: 140.46 MiB
    Density: 46.49 MiB
      Arrays: 6.93 MiB
      Localized functions: 36.90 MiB
      Mixer: 2.67 MiB
    Hamiltonian: 12.49 MiB
      Arrays: 4.53 MiB
      XC: 0.00 MiB
      Poisson: 5.17 MiB
      vbar: 2.79 MiB
    Wavefunctions: 81.47 MiB
      Arrays psit_nG: 36.26 MiB
      Eigensolver: 39.01 MiB
      Projections: 0.37 MiB
      Projectors: 5.84 MiB

Total number of cores used: 1

Number of atoms: 24
Number of atomic orbitals: 136
Number of bands in calculation: 136
Bands to converge: occupied states only
Number of valence electrons: 174

... initialized

Initializing position-dependent things.

Density initialized from atomic densities
Creating initial wave functions:
  136 bands from LCAO basis set

                                 
                                 
                                 
                                 
                Fe               
                     O           
                      Fe         
          FF   F    Fe           
                      F          
           Fe                    
           F       F             
              F        Fe        
               Fe                
                                 
             FeF FO   F          
                                 
       F          Fe             
            F     F              
                                 
                                 
                                 
                                 
                                 

Positions:
   0 Fe     1.416738    1.189211    7.926783    ( 0.0000,  0.0000,  0.0000)
   1 Fe     1.416738    3.596231    2.484800    ( 0.0000,  0.0000,  0.0000)
   2 Fe     2.953178    1.172318    5.021961    ( 0.0000,  0.0000,  0.0000)
   3 Fe     2.953178    3.613124   10.463944    ( 0.0000,  0.0000,  0.0000)
   4 Fe     4.363302    1.106753    2.281594    ( 0.0000,  0.0000,  0.0000)
   5 Fe     4.323386    3.678689    7.729077    ( 0.0000,  0.0000,  0.0000)
   6 Fe     5.716377    1.155072    9.986703    ( 0.0000,  0.0000,  0.0000)
   7 Fe     5.681193    3.630370    4.621478    ( 0.0000,  0.0000,  0.0000)
   8 O      4.465826    0.279843    3.926077    ( 0.0000,  0.0000,  0.0000)
   9 O      4.465826    4.505599    9.368060    ( 0.0000,  0.0000,  0.0000)
  10 F      0.078582    0.275431    2.070677    ( 0.0000,  0.0000,  0.0000)
  11 F      0.078582    4.510011    7.420593    ( 0.0000,  0.0000,  0.0000)
  12 F      1.274802    2.150774    6.036975    ( 0.0000,  0.0000,  0.0000)
  13 F      1.274802    2.634668    0.594992    ( 0.0000,  0.0000,  0.0000)
  14 F      1.601658    0.247632    9.814751    ( 0.0000,  0.0000,  0.0000)
  15 F      1.601658    4.584200    4.424151    ( 0.0000,  0.0000,  0.0000)
  16 F      2.763996    2.170342    3.056782    ( 0.0000,  0.0000,  0.0000)
  17 F      2.763996    2.615100    8.498765    ( 0.0000,  0.0000,  0.0000)
  18 F      2.997224    0.170362    6.924657    ( 0.0000,  0.0000,  0.0000)
  19 F      2.997224    4.615080    1.482674    ( 0.0000,  0.0000,  0.0000)
  20 F      4.162132    2.120047    0.418026    ( 0.0000,  0.0000,  0.0000)
  21 F      4.143358    2.680321    5.862595    ( 0.0000,  0.0000,  0.0000)
  22 F      5.583533    2.190043    8.151270    ( 0.0000,  0.0000,  0.0000)
  23 F      5.583533    2.637152    2.709287    ( 0.0000,  0.0000,  0.0000)

Unit cell:
           periodic     x           y           z      points  spacing
  1. axis:    yes    5.735919    0.000000   -0.790267    28     0.2049
  2. axis:    yes    0.000000    4.785442    0.000000    24     0.1994
  3. axis:    yes    0.000000    0.000000   10.883966    52     0.2073

  Lengths:   5.790103   4.785442  10.883966
  Angles:   90.000000  97.844547  90.000000

Effective grid spacing dv^(1/3) = 0.2045

                     log10-error:    total        iterations:
           time      wfs    density  energy       fermi  poisson
iter:   1  21:16:40  +1.56   +inf  -150.077943    3      17     
iter:   2  21:16:43  +0.21   +inf  -150.724804    3             
iter:   3  21:16:46  -0.38   +inf  -150.910641    2             
iter:   4  21:16:50  -0.63  -1.14  -149.181977    3      8      
iter:   5  21:16:55  -0.40  -1.18  -158.594353    3      14     
iter:   6  21:16:59  -0.31  -1.17  -148.442558    3      15     
iter:   7  21:17:04  -0.65  -1.34  -146.124753    4      13     
iter:   8  21:17:09  -1.42  -1.43  -145.802784    4      11     
iter:   9  21:17:15  -1.53  -1.44  -146.140575    4      12     
iter:  10  21:17:20  -1.51  -1.43  -146.190433    4      13     
iter:  11  21:17:25  -1.38  -1.42  -146.363237    4      13     
iter:  12  21:17:29  -1.38  -1.44  -145.887399    3      12     
iter:  13  21:17:34  -1.70  -1.46  -145.699855    4      12     
iter:  14  21:17:38  -1.56  -1.50  -145.778138    4      8      
iter:  15  21:17:43  -1.19  -1.56  -146.589956    3      13     
iter:  16  21:17:48  -1.41  -1.48  -147.293408    4      14     
iter:  17  21:17:54  -1.42  -1.48  -145.686601    4      14     
iter:  18  21:17:59  -1.33  -1.71  -147.081276    3      12     
iter:  19  21:18:05  -1.16  -1.60  -146.872581    3      13     
iter:  20  21:18:11  -1.43  -1.61  -145.424495    4      12     
iter:  21  21:18:17  -1.73  -1.93  -145.943647    3      11     
iter:  22  21:18:23  -1.75  -1.83  -145.549945    3      12     
iter:  23  21:18:29  -2.09  -1.97  -145.440693    3      11     
iter:  24  21:18:35  -2.50  -1.97  -145.413819    3      10     
iter:  25  21:18:40  -2.46  -2.14  -145.441135    3      9      
iter:  26  21:18:45  -2.48  -2.21  -145.446444    3      9      
iter:  27  21:18:49  -2.50  -2.28  -145.429484    3      9      
iter:  28  21:18:54  -2.62  -2.34  -145.484348    3      10     
iter:  29  21:18:58  -2.64  -2.32  -145.396706    3      9      
iter:  30  21:19:03  -3.06  -2.55  -145.407813    2      8      
iter:  31  21:19:07  -3.05  -2.49  -145.397165    3      9      
iter:  32  21:19:12  -3.14  -2.54  -145.407687    2      8      
iter:  33  21:19:16  -3.31  -2.57  -145.390499    3      7      
iter:  34  21:19:21  -3.41  -2.65  -145.386957    3      7      
iter:  35  21:19:25  -3.23  -2.65  -145.399423    2      7      
iter:  36  21:19:30  -3.47  -2.65  -145.390782    3      7      
iter:  37  21:19:34  -3.67  -2.70  -145.387720    2      8      
iter:  38  21:19:39  -3.76  -2.74  -145.385953    3      7      
iter:  39  21:19:44  -3.81  -2.73  -145.386040    2      6      
iter:  40  21:19:49  -4.18  -2.82  -145.385759    3      4      
iter:  41  21:19:54  -3.99  -2.87  -145.383130    3      6      
iter:  42  21:19:59  -3.91  -2.80  -145.385300    2      6      
iter:  43  21:20:05  -4.07  -2.86  -145.386392    2      7      
iter:  44  21:20:10  -4.02  -2.85  -145.387455    3      6      
iter:  45  21:20:16  -3.99  -2.90  -145.383752    2      6      
iter:  46  21:20:22  -4.18  -2.89  -145.382382    2      5      
iter:  47  21:20:27  -4.40  -2.98  -145.386081    3      5      
iter:  48  21:20:31  -4.26  -2.97  -145.382428    2      5      
iter:  49  21:20:37  -4.40  -3.00  -145.382694    2      6      
iter:  50  21:20:44  -4.37  -2.96  -145.381983    3      5      
iter:  51  21:20:51  -4.25  -3.05  -145.386070    2      5      
iter:  52  21:20:57  -4.10  -3.01  -145.383646    2      5      
iter:  53  21:21:03  -4.37  -3.07  -145.380734    3      5      
iter:  54  21:21:10  -4.33  -3.13  -145.384494    2      5      
iter:  55  21:21:15  -4.50  -3.09  -145.384897    2      5      
iter:  56  21:21:22  -4.62  -3.08  -145.383508    2      4      
iter:  57  21:21:28  -4.83  -3.22  -145.381981    2      4      
iter:  58  21:21:33  -4.53  -3.21  -145.383094    2      4      
iter:  59  21:21:39  -4.78  -3.21  -145.384043    2      4      
iter:  60  21:21:45  -4.68  -3.31  -145.382023    2      4      
iter:  61  21:21:50  -4.57  -3.20  -145.382354    2      5      
iter:  62  21:21:56  -4.57  -3.21  -145.382030    2      5      
iter:  63  21:22:01  -5.07  -3.34  -145.383200    2      4      
iter:  64  21:22:06  -4.77  -3.42  -145.382818    2      4      
iter:  65  21:22:12  -4.88  -3.32  -145.381493    2      4      
iter:  66  21:22:17  -5.16  -3.49  -145.383235    2      4      
iter:  67  21:22:22  -5.18  -3.42  -145.382514    2      4      
iter:  68  21:22:28  -4.86  -3.58  -145.383144    2      4      
iter:  69  21:22:34  -4.90  -3.36  -145.381299    2      4      
iter:  70  21:22:39  -5.25  -3.63  -145.382076    2      4      
iter:  71  21:22:44  -5.17  -3.87  -145.383159    2      4      
iter:  72  21:22:49  -5.37  -3.70  -145.381877    2      4      
iter:  73  21:22:54  -5.65  -3.92  -145.382494    2      3      
iter:  74  21:22:58  -6.14  -4.11  -145.382111    2      3      
iter:  75  21:23:02  -6.03  -4.01  -145.382639    2      3      
iter:  76  21:23:07  -6.62  -4.17  -145.382225    2      3      
iter:  77  21:23:11  -6.40  -4.29  -145.382019    2      3      
iter:  78  21:23:15  -6.70  -4.32  -145.382279    2      2      
iter:  79  21:23:21  -6.98  -4.46  -145.382665    2      2      
iter:  80  21:23:25  -7.19  -4.51  -145.381969    2      2      
iter:  81  21:23:31  -7.54  -4.59  -145.382094    2      1      

Converged after 81 iterations.

Dipole moment: (-2.582362, 2.523537, 2.363548) |e|*Ang

Energy contributions relative to reference atoms: (reference = -319034.472395)

Kinetic:       +119.839163
Potential:     -133.551162
External:        +0.000000
XC:            -138.677267
Entropy (-ST):   -1.218135
Local:           +7.616239
--------------------------
Free energy:   -145.991162
Extrapolated:  -145.382094

Fermi level: 3.68939

 Band  Eigenvalues  Occupancy
    0    -20.72408    2.00000
    1    -20.61622    2.00000
    2    -20.42866    2.00000
    3    -20.36579    2.00000
    4    -20.29941    2.00000
    5    -20.29344    2.00000
    6    -20.24041    2.00000
    7    -20.19271    2.00000
    8    -20.14263    2.00000
    9    -20.06383    2.00000
   10    -19.98144    2.00000
   11    -19.95191    2.00000
   12    -19.84787    2.00000
   13    -19.70745    2.00000
   14    -14.59420    2.00000
   15    -14.55982    2.00000
   16     -4.21690    2.00000
   17     -3.86805    2.00000
   18     -3.46651    2.00000
   19     -3.32183    2.00000
   20     -3.26230    2.00000
   21     -3.10219    2.00000
   22     -3.07049    2.00000
   23     -3.01219    2.00000
   24     -2.92662    2.00000
   25     -2.84711    2.00000
   26     -2.77274    2.00000
   27     -2.66467    2.00000
   28     -2.64761    2.00000
   29     -2.63798    2.00000
   30     -2.54515    2.00000
   31     -2.47346    2.00000
   32     -2.41156    2.00000
   33     -2.37941    2.00000
   34     -2.35905    2.00000
   35     -2.28947    2.00000
   36     -2.27688    2.00000
   37     -2.22892    2.00000
   38     -2.09512    2.00000
   39     -2.07376    2.00000
   40     -2.04399    2.00000
   41     -2.01550    2.00000
   42     -1.99120    2.00000
   43     -1.94239    2.00000
   44     -1.73312    2.00000
   45     -1.63652    2.00000
   46     -1.48754    2.00000
   47     -1.44320    2.00000
   48     -1.40775    2.00000
   49     -1.29803    2.00000
   50     -1.12018    2.00000
   51     -1.09067    2.00000
   52     -1.03986    2.00000
   53     -0.98539    2.00000
   54     -0.86839    2.00000
   55     -0.83029    2.00000
   56     -0.75629    2.00000
   57     -0.71166    2.00000
   58     -0.54498    2.00000
   59     -0.48929    2.00000
   60     -0.38053    2.00000
   61     -0.32749    2.00000
   62      0.41745    2.00000
   63      0.45599    2.00000
   64      2.90986    1.99918
   65      2.92284    1.99906
   66      2.99127    1.99814
   67      2.99539    1.99807
   68      3.01510    1.99764
   69      3.02871    1.99730
   70      3.06828    1.99599
   71      3.10409    1.99427
   72      3.14136    1.99170
   73      3.16152    1.98985
   74      3.19796    1.98542
   75      3.21051    1.98349
   76      3.26223    1.97246
   77      3.27876    1.96760
   78      3.32318    1.94993
   79      3.37179    1.91984
   80      3.38955    1.90501
   81      3.39225    1.90253
   82      3.44192    1.84470
   83      3.47827    1.78397
   84      3.56617    1.54839
   85      3.58812    1.46707
   86      3.61854    1.34013
   87      3.70641    0.91509
   88      3.72877    0.80557
   89      3.85400    0.32328
   90      3.94207    0.14800
   91      3.96349    0.12119
   92      4.01925    0.07123
   93      4.07022    0.04341
   94      4.14513    0.02076
   95      4.16567    0.01694
   96      4.37188    0.00217
   97      4.50508    0.00057
   98      4.86758    0.00002
   99      4.95909    0.00001
  100      5.01633    0.00000
  101      5.04671    0.00000
  102      5.14137    0.00000
  103      5.28649    0.00000
  104      6.20540    0.00000
  105      7.97154    0.00000
  106      8.45698    0.00000
  107     10.97472    0.00000
  108     11.29435    0.00000
  109     11.32384    0.00000
  110     11.49075    0.00000
  111     11.73177    0.00000
  112     11.93863    0.00000
  113     12.04714    0.00000
  114     12.19715    0.00000
  115     12.83655    0.00000
  116     13.19396    0.00000
  117     13.28178    0.00000
  118     13.63082    0.00000
  119     13.92158    0.00000
  120     14.56450    0.00000
  121     14.95606    0.00000
  122     15.00380    0.00000
  123     15.09550    0.00000
  124     15.30305    0.00000
  125     15.72262    0.00000
  126     15.80522    0.00000
  127     15.83718    0.00000
  128     15.88743    0.00000
  129     15.97783    0.00000
  130     16.04687    0.00000
  131     16.12857    0.00000
  132     16.19770    0.00000
  133     16.28090    0.00000
  134     16.34007    0.00000
  135     16.47038    0.00000

Timing:                              incl.     excl.
-----------------------------------------------------------
Hamiltonian:                         1.924     0.000   0.0% |
 Atomic:                             1.071     0.002   0.0% |
  XC Correction:                     1.069     1.069   0.3% |
 Calculate atomic Hamiltonians:      0.012     0.012   0.0% |
 Communicate:                        0.000     0.000   0.0% |
 Hartree integrate/restrict:         0.006     0.006   0.0% |
 Initialize Hamiltonian:             0.000     0.000   0.0% |
 Poisson:                            0.618     0.618   0.1% |
 XC 3D grid:                         0.215     0.215   0.1% |
 vbar:                               0.002     0.002   0.0% |
LCAO initialization:                 5.839     0.230   0.1% |
 LCAO eigensolver:                   0.953     0.000   0.0% |
  Calculate projections:             0.003     0.003   0.0% |
  DenseAtomicCorrection:             0.003     0.003   0.0% |
  Distribute overlap matrix:         0.000     0.000   0.0% |
  Orbital Layouts:                   0.009     0.009   0.0% |
  Potential matrix:                  0.938     0.938   0.2% |
 LCAO to grid:                       4.028     4.028   1.0% |
 Set positions (LCAO WFS):           0.629     0.000   0.0% |
  Basic WFS set positions:           0.001     0.001   0.0% |
  Basis functions set positions:     0.000     0.000   0.0% |
  TCI: Calculate S, T, P:            0.628     0.628   0.1% |
SCF-cycle:                         414.041     0.059   0.0% |
 Davidson:                         274.661    85.734  20.3% |-------|
  Apply hamiltonian:                 9.268     9.268   2.2% ||
  Subspace diag:                    63.541     0.014   0.0% |
   calc_h_matrix:                   27.119    17.855   4.2% |-|
    Apply hamiltonian:               9.263     9.263   2.2% ||
   diagonalize:                      0.360     0.360   0.1% |
   rotate_psi:                      36.049    36.049   8.5% |--|
  calc. matrices:                   76.128    66.471  15.7% |-----|
   Apply hamiltonian:                9.657     9.657   2.3% ||
  diagonalize:                       1.534     1.534   0.4% |
  rotate_psi:                       38.456    38.456   9.1% |---|
 Density:                            2.903     0.012   0.0% |
  Atomic density matrices:           0.201     0.201   0.0% |
  Mix:                               1.881     1.881   0.4% |
  Multipole moments:                 0.061     0.061   0.0% |
  Pseudo density:                    0.747     0.746   0.2% |
   Symmetrize density:               0.002     0.002   0.0% |
 Hamiltonian:                      135.801     0.010   0.0% |
  Atomic:                           90.858     0.208   0.0% |
   XC Correction:                   90.649    90.649  21.4% |--------|
  Calculate atomic Hamiltonians:     1.137     1.137   0.3% |
  Communicate:                       0.001     0.001   0.0% |
  Hartree integrate/restrict:        0.581     0.581   0.1% |
  Poisson:                          23.726    23.726   5.6% |-|
  XC 3D grid:                       19.285    19.285   4.6% |-|
  vbar:                              0.204     0.204   0.0% |
 Orthonormalize:                     0.617     0.000   0.0% |
  calc_s_matrix:                     0.145     0.145   0.0% |
  inverse-cholesky:                  0.001     0.001   0.0% |
  projections:                       0.253     0.253   0.1% |
  rotate_psi_s:                      0.218     0.218   0.1% |
Set symmetry:                        0.001     0.001   0.0% |
Other:                               0.832     0.832   0.2% |
-----------------------------------------------------------
Total:                                       422.637 100.0%

Memory usage: 357.29 MiB
Date: Tue Mar 26 21:23:31 2019
