
  ___ ___ ___ _ _ _  
 |   |   |_  | | | | 
 | | | | | . | | | | 
 |__ |  _|___|_____|  1.4.0
 |___|_|             

User:   murakami@tssm1.eng.shizuoka.ac.jp
Date:   Tue Mar 26 20:23:00 2019
Arch:   x86_64
Pid:    31289
Python: 3.6.5
gpaw:   /home/murakami/.local/lib/python3.6/site-packages/gpaw
_gpaw:  /home/murakami/.local/lib/python3.6/site-packages/
        _gpaw.cpython-36m-x86_64-linux-gnu.so
ase:    /home/murakami/.local/lib/python3.6/site-packages/ase (version 3.16.2)
numpy:  /home/murakami/.local/lib/python3.6/site-packages/numpy (version 1.15.2)
scipy:  /home/murakami/.local/lib/python3.6/site-packages/scipy (version 1.1.0)
units:  Angstrom and eV
cores:  1

Input parameters:
  kpts: {size: (1, 1, 1)}
  maxiter: 300
  xc: PBE

System changes: positions, numbers, cell, pbc, initial_charges, initial_magmoms 

Initialize ...

Fe-setup:
  name: Iron
  id: 37abbd8d6c3c35915a9b583b742da910
  Z: 26
  valence: 8
  core: 18
  charge: 0.0
  file: /home/murakami/Public/gpaw-setups-0.9.20000/Fe.PBE.gz
  cutoffs: 1.06(comp), 2.06(filt), 2.67(core), lmax=2
  valence states:
                energy  radius
    4s(2.00)    -5.291   1.164
    4p(0.00)    -1.326   1.058
    3d(6.00)    -7.505   1.058
    *s          21.920   1.164
    *p          25.885   1.058
    *d          19.706   1.058

  Using partial waves for Fe as LCAO basis

O-setup:
  name: Oxygen
  id: 32ecd46bf208036f09c70b0ec9a88b78
  Z: 8
  valence: 6
  core: 2
  charge: 0.0
  file: /home/murakami/Public/gpaw-setups-0.9.20000/O.PBE.gz
  cutoffs: 0.67(comp), 1.17(filt), 0.83(core), lmax=2
  valence states:
                energy  radius
    2s(2.00)   -23.961   0.688
    2p(4.00)    -9.029   0.598
    *s           3.251   0.688
    *p          18.182   0.598
    *d           0.000   0.619

  Using partial waves for O as LCAO basis

F-setup:
  name: Fluorine
  id: 9cd46ba2a61e170ad72278be75b55cc0
  Z: 9
  valence: 7
  core: 2
  charge: 0.0
  file: /home/murakami/Public/gpaw-setups-0.9.20000/F.PBE.gz
  cutoffs: 0.64(comp), 1.14(filt), 0.74(core), lmax=2
  valence states:
                energy  radius
    2s(2.00)   -29.898   0.635
    2p(5.00)   -11.110   0.635
    *s          -2.687   0.635
    *p          16.102   0.635
    *d           0.000   0.635

  Using partial waves for F as LCAO basis

Reference energy: -319034.472395

Spin-paired calculation

Occupation numbers:
  Fermi-Dirac: width=0.1000 eV

Convergence criteria:
  Maximum total energy change: 0.0005 eV / electron
  Maximum integral of absolute density change: 0.0001 electrons
  Maximum integral of absolute eigenstate change: 4e-08 eV^2
  Maximum number of iterations: 300

Symmetries present (total): 1

  ( 1  0  0)
  ( 0  1  0)
  ( 0  0  1)

1 k-point (Gamma)
1 k-point in the irreducible part of the Brillouin zone
       k-points in crystal coordinates                weights
   0:     0.00000000    0.00000000    0.00000000          1/1

Wave functions: Uniform real-space grid
  Kinetic energy operator: 12*3+1=37 point O(h^6) finite-difference Laplacian
  ScaLapack parameters: grid=1x1, blocksize=None 

Eigensolver
   Davidson(niter=1, smin=None, normalize=True) 

Densities:
  Coarse grid: 28*24*52 grid
  Fine grid: 56*48*104 grid
  Total Charge: 0.000000 

Density mixing:
  Method: separate
  Backend: pulay
  Linear mixing parameter: 0.05
  Mixing with 5 old densities
  Damping of long wave oscillations: 50 

Hamiltonian:
  XC and Coulomb potentials evaluated on a 56*48*104 grid
  Using the PBE Exchange-Correlation functional
  Interpolation: tri-quintic (5. degree polynomial)
  Poisson solver: Jacobi solver with 4 multi-grid levels
    Coarsest grid: 7 x 6 x 13 points
    Stencil: 12*3+1=37 point O(h^6) finite-difference Laplacian
    Max iterations: 1000
    Tolerance: 2.000000e-10 

Memory estimate:
  Process memory now: 357.29 MiB
  Calculator: 140.46 MiB
    Density: 46.49 MiB
      Arrays: 6.93 MiB
      Localized functions: 36.90 MiB
      Mixer: 2.67 MiB
    Hamiltonian: 12.49 MiB
      Arrays: 4.53 MiB
      XC: 0.00 MiB
      Poisson: 5.17 MiB
      vbar: 2.79 MiB
    Wavefunctions: 81.47 MiB
      Arrays psit_nG: 36.26 MiB
      Eigensolver: 39.01 MiB
      Projections: 0.37 MiB
      Projectors: 5.84 MiB

Total number of cores used: 1

Number of atoms: 24
Number of atomic orbitals: 136
Number of bands in calculation: 136
Bands to converge: occupied states only
Number of valence electrons: 174

... initialized

Initializing position-dependent things.

Density initialized from atomic densities
Creating initial wave functions:
  136 bands from LCAO basis set

                                 
                                 
                                 
                                 
                Fe               
                     O           
                      Fe         
          FF   F    Fe           
                      F          
           Fe                    
           F       F             
              F        Fe        
               Fe                
                                 
             FeF FO   F          
                                 
       F          Fe             
            F      F             
                                 
                                 
                                 
                                 
                                 

Positions:
   0 Fe     1.416738    1.198190    7.931908    ( 0.0000,  0.0000,  0.0000)
   1 Fe     1.416738    3.628692    2.489925    ( 0.0000,  0.0000,  0.0000)
   2 Fe     2.953178    1.191035    5.032643    ( 0.0000,  0.0000,  0.0000)
   3 Fe     2.953178    3.631840   10.474626    ( 0.0000,  0.0000,  0.0000)
   4 Fe     4.323386    1.134154    2.302733    ( 0.0000,  0.0000,  0.0000)
   5 Fe     4.323386    3.706090    7.744716    ( 0.0000,  0.0000,  0.0000)
   6 Fe     5.681193    1.191078   10.084012    ( 0.0000,  0.0000,  0.0000)
   7 Fe     5.681193    3.666376    4.615885    ( 0.0000,  0.0000,  0.0000)
   8 O      4.465826    0.308147    3.942231    ( 0.0000,  0.0000,  0.0000)
   9 O      4.465826    4.533902    9.384214    ( 0.0000,  0.0000,  0.0000)
  10 F      0.078582    0.275929    1.978894    ( 0.0000,  0.0000,  0.0000)
  11 F      0.078582    4.510509    7.420877    ( 0.0000,  0.0000,  0.0000)
  12 F      1.274802    2.158853    6.041587    ( 0.0000,  0.0000,  0.0000)
  13 F      1.274802    2.642748    0.599604    ( 0.0000,  0.0000,  0.0000)
  14 F      1.601658    0.257783    9.820545    ( 0.0000,  0.0000,  0.0000)
  15 F      1.601658    4.547961    4.433645    ( 0.0000,  0.0000,  0.0000)
  16 F      2.763996    2.187859    3.066780    ( 0.0000,  0.0000,  0.0000)
  17 F      2.763996    2.632618    8.508763    ( 0.0000,  0.0000,  0.0000)
  18 F      2.997224    0.189357    6.935499    ( 0.0000,  0.0000,  0.0000)
  19 F      2.997224    4.634076    1.493516    ( 0.0000,  0.0000,  0.0000)
  20 F      4.143358    2.146306    0.435600    ( 0.0000,  0.0000,  0.0000)
  21 F      4.143358    2.691655    5.781228    ( 0.0000,  0.0000,  0.0000)
  22 F      5.583533    2.219965    8.171468    ( 0.0000,  0.0000,  0.0000)
  23 F      5.583533    2.636251    2.729485    ( 0.0000,  0.0000,  0.0000)

Unit cell:
           periodic     x           y           z      points  spacing
  1. axis:    yes    5.735919    0.036353   -0.769518    28     0.2049
  2. axis:    yes    0.000000    4.785442    0.000000    24     0.1994
  3. axis:    yes    0.000000    0.000000   10.883966    52     0.2074

  Lengths:   5.787421   4.785442  10.883966
  Angles:   90.000000  97.640897  89.640101

Effective grid spacing dv^(1/3) = 0.2045

                     log10-error:    total        iterations:
           time      wfs    density  energy       fermi  poisson
iter:   1  20:23:13  +1.56   +inf  -150.307130    3      17     
iter:   2  20:23:16  +0.21   +inf  -150.949467    3             
iter:   3  20:23:20  -0.39   +inf  -151.133753    2             
iter:   4  20:23:25  -0.64  -1.14  -149.389972    3      8      
iter:   5  20:23:30  -0.36  -1.18  -158.939693    4      14     
iter:   6  20:23:36  -0.31  -1.17  -148.264531    4      15     
iter:   7  20:23:41  -0.66  -1.34  -146.310714    4      12     
iter:   8  20:23:46  -1.45  -1.43  -146.093803    3      11     
iter:   9  20:23:51  -1.58  -1.44  -146.142353    4      11     
iter:  10  20:23:56  -1.64  -1.43  -146.417930    4      13     
iter:  11  20:24:02  -1.42  -1.43  -146.422707    3      13     
iter:  12  20:24:07  -1.44  -1.45  -146.090336    4      9      
iter:  13  20:24:12  -1.69  -1.46  -145.884594    3      11     
iter:  14  20:24:17  -1.46  -1.49  -146.271863    4      10     
iter:  15  20:24:22  -1.12  -1.53  -147.760031    3      14     
iter:  16  20:24:27  -1.28  -1.43  -147.768654    4      14     
iter:  17  20:24:32  -1.33  -1.45  -145.788674    4      13     
iter:  18  20:24:37  -1.37  -1.72  -146.787074    4      10     
iter:  19  20:24:42  -1.24  -1.63  -146.700726    3      13     
iter:  20  20:24:46  -1.48  -1.65  -145.836785    3      11     
iter:  21  20:24:51  -1.93  -1.80  -146.112821    3      12     
iter:  22  20:24:56  -1.85  -1.74  -146.180680    3      13     
iter:  23  20:25:01  -1.96  -1.74  -145.629396    3      12     
iter:  24  20:25:06  -2.68  -1.88  -145.666227    2      8      
iter:  25  20:25:11  -2.22  -1.89  -145.830943    2      10     
iter:  26  20:25:16  -2.23  -1.85  -145.805205    3      10     
iter:  27  20:25:21  -1.97  -1.90  -146.159373    3      11     
iter:  28  20:25:26  -1.64  -1.90  -147.100245    3      13     
iter:  29  20:25:31  -1.60  -1.67  -145.812453    3      13     
iter:  30  20:25:36  -2.23  -1.93  -145.785613    2      10     
iter:  31  20:25:40  -2.54  -2.01  -145.714672    3      9      
iter:  32  20:25:45  -2.79  -2.07  -145.680044    3      9      
iter:  33  20:25:50  -3.13  -2.09  -145.677689    3      8      
iter:  34  20:25:55  -2.40  -2.22  -145.878067    3      11     
iter:  35  20:26:00  -2.24  -2.08  -145.710932    3      11     
iter:  36  20:26:04  -2.59  -2.42  -145.637644    3      8      
iter:  37  20:26:09  -3.19  -2.83  -145.642025    3      6      
iter:  38  20:26:14  -3.22  -2.77  -145.644878    2      7      
iter:  39  20:26:18  -3.56  -2.72  -145.632742    2      7      
iter:  40  20:26:23  -4.16  -2.94  -145.637410    2      5      
iter:  41  20:26:28  -3.97  -2.95  -145.634828    3      6      
iter:  42  20:26:32  -3.69  -2.89  -145.634099    2      8      
iter:  43  20:26:37  -3.65  -2.83  -145.632334    3      6      
iter:  44  20:26:42  -4.09  -3.16  -145.632597    2      5      
iter:  45  20:26:47  -4.09  -3.23  -145.633786    2      6      
iter:  46  20:26:52  -4.21  -3.09  -145.629135    2      5      
iter:  47  20:26:57  -4.61  -3.38  -145.632130    2      4      
iter:  48  20:27:02  -4.65  -3.36  -145.633914    2      5      
iter:  49  20:27:06  -4.51  -3.28  -145.630912    2      4      
iter:  50  20:27:11  -4.90  -3.46  -145.630947    2      4      
iter:  51  20:27:16  -4.78  -3.45  -145.631154    2      4      
iter:  52  20:27:20  -4.67  -3.40  -145.632677    2      4      
iter:  53  20:27:25  -4.95  -3.49  -145.630454    2      3      
iter:  54  20:27:31  -5.00  -3.55  -145.630371    2      4      
iter:  55  20:27:36  -4.88  -3.58  -145.632465    2      4      
iter:  56  20:27:42  -4.87  -3.54  -145.632026    2      4      
iter:  57  20:27:48  -5.11  -3.50  -145.631417    2      4      
iter:  58  20:27:54  -5.20  -3.80  -145.630598    2      3      
iter:  59  20:28:00  -5.16  -3.70  -145.632030    2      3      
iter:  60  20:28:06  -5.42  -3.75  -145.631591    2      3      
iter:  61  20:28:11  -5.87  -3.94  -145.630940    2      3      
iter:  62  20:28:17  -5.53  -3.95  -145.631315    2      3      
iter:  63  20:28:23  -5.66  -3.77  -145.631466    2      3      
iter:  64  20:28:29  -6.08  -4.03  -145.631769    2      3      
iter:  65  20:28:35  -5.88  -4.03  -145.631148    2      3      
iter:  66  20:28:41  -5.93  -4.05  -145.631371    2      3      
iter:  67  20:28:46  -6.21  -4.28  -145.631521    2      2      
iter:  68  20:28:52  -6.29  -4.46  -145.631176    2      3      
iter:  69  20:28:58  -6.45  -4.25  -145.631546    2      2      
iter:  70  20:29:04  -7.20  -4.65  -145.631482    2      1      
iter:  71  20:29:09  -7.36  -4.69  -145.631438    2      1      
iter:  72  20:29:15  -6.95  -4.73  -145.631409    2      2      
iter:  73  20:29:19  -7.10  -4.73  -145.631451    2      2      
iter:  74  20:29:24  -7.20  -4.81  -145.631462    2      1      
iter:  75  20:29:28  -7.17  -4.91  -145.631413    2      2      
iter:  76  20:29:33  -7.48  -4.85  -145.631415    2      2      

Converged after 76 iterations.

Dipole moment: (-1.554353, 2.998410, -2.008596) |e|*Ang

Energy contributions relative to reference atoms: (reference = -319034.472395)

Kinetic:       +118.718752
Potential:     -132.727958
External:        +0.000000
XC:            -138.616880
Entropy (-ST):   -1.204815
Local:           +7.597078
--------------------------
Free energy:   -146.233823
Extrapolated:  -145.631415

Fermi level: 3.68966

 Band  Eigenvalues  Occupancy
    0    -20.69140    2.00000
    1    -20.60172    2.00000
    2    -20.38611    2.00000
    3    -20.34143    2.00000
    4    -20.30495    2.00000
    5    -20.24387    2.00000
    6    -20.20229    2.00000
    7    -20.17680    2.00000
    8    -20.14731    2.00000
    9    -20.13166    2.00000
   10    -19.95702    2.00000
   11    -19.93978    2.00000
   12    -19.85697    2.00000
   13    -19.83758    2.00000
   14    -14.61047    2.00000
   15    -14.56234    2.00000
   16     -4.20091    2.00000
   17     -3.84409    2.00000
   18     -3.45596    2.00000
   19     -3.29823    2.00000
   20     -3.24768    2.00000
   21     -3.07895    2.00000
   22     -3.04827    2.00000
   23     -2.99188    2.00000
   24     -2.94084    2.00000
   25     -2.86931    2.00000
   26     -2.76961    2.00000
   27     -2.65138    2.00000
   28     -2.62818    2.00000
   29     -2.62148    2.00000
   30     -2.48932    2.00000
   31     -2.43580    2.00000
   32     -2.40316    2.00000
   33     -2.37187    2.00000
   34     -2.34434    2.00000
   35     -2.28112    2.00000
   36     -2.25660    2.00000
   37     -2.23725    2.00000
   38     -2.10261    2.00000
   39     -2.06952    2.00000
   40     -2.05267    2.00000
   41     -1.98720    2.00000
   42     -1.97478    2.00000
   43     -1.94649    2.00000
   44     -1.81083    2.00000
   45     -1.74012    2.00000
   46     -1.48971    2.00000
   47     -1.44951    2.00000
   48     -1.40787    2.00000
   49     -1.31459    2.00000
   50     -1.14647    2.00000
   51     -1.11099    2.00000
   52     -1.04063    2.00000
   53     -1.01268    2.00000
   54     -0.88652    2.00000
   55     -0.83684    2.00000
   56     -0.75367    2.00000
   57     -0.73559    2.00000
   58     -0.56622    2.00000
   59     -0.48826    2.00000
   60     -0.41141    2.00000
   61     -0.34909    2.00000
   62      0.42870    2.00000
   63      0.45170    2.00000
   64      2.91237    1.99916
   65      2.92497    1.99905
   66      2.98805    1.99821
   67      2.99083    1.99816
   68      3.01339    1.99769
   69      3.02995    1.99728
   70      3.06239    1.99623
   71      3.10475    1.99425
   72      3.13548    1.99219
   73      3.15555    1.99047
   74      3.20618    1.98423
   75      3.22284    1.98140
   76      3.26705    1.97120
   77      3.28921    1.96419
   78      3.30243    1.95923
   79      3.36086    1.92803
   80      3.38418    1.90998
   81      3.39734    1.89796
   82      3.43882    1.84946
   83      3.47712    1.78671
   84      3.56405    1.55672
   85      3.58533    1.47900
   86      3.61766    1.34523
   87      3.71050    0.89618
   88      3.73260    0.78856
   89      3.85187    0.32985
   90      3.95000    0.13785
   91      3.95589    0.13047
   92      4.03521    0.06121
   93      4.07496    0.04155
   94      4.14693    0.02045
   95      4.17533    0.01543
   96      4.38797    0.00185
   97      4.51184    0.00054
   98      4.84394    0.00002
   99      4.96385    0.00001
  100      5.00120    0.00000
  101      5.04261    0.00000
  102      5.09680    0.00000
  103      5.29989    0.00000
  104      6.20832    0.00000
  105      8.02527    0.00000
  106      8.40895    0.00000
  107     11.02755    0.00000
  108     11.36828    0.00000
  109     11.40455    0.00000
  110     11.50318    0.00000
  111     11.78422    0.00000
  112     11.91962    0.00000
  113     12.02323    0.00000
  114     12.16343    0.00000
  115     12.85246    0.00000
  116     13.18827    0.00000
  117     13.24998    0.00000
  118     13.55206    0.00000
  119     13.83295    0.00000
  120     14.57866    0.00000
  121     14.98611    0.00000
  122     15.03822    0.00000
  123     15.09323    0.00000
  124     15.27088    0.00000
  125     15.75960    0.00000
  126     15.81380    0.00000
  127     15.87121    0.00000
  128     15.90217    0.00000
  129     15.95074    0.00000
  130     16.04233    0.00000
  131     16.17416    0.00000
  132     16.19592    0.00000
  133     16.35454    0.00000
  134     16.37749    0.00000
  135     16.45683    0.00000

Timing:                              incl.     excl.
-----------------------------------------------------------
Hamiltonian:                         2.274     0.000   0.0% |
 Atomic:                             1.081     0.003   0.0% |
  XC Correction:                     1.078     1.078   0.3% |
 Calculate atomic Hamiltonians:      0.013     0.013   0.0% |
 Communicate:                        0.000     0.000   0.0% |
 Hartree integrate/restrict:         0.007     0.007   0.0% |
 Initialize Hamiltonian:             0.000     0.000   0.0% |
 Poisson:                            0.955     0.955   0.2% |
 XC 3D grid:                         0.216     0.216   0.1% |
 vbar:                               0.002     0.002   0.0% |
LCAO initialization:                 6.395     0.244   0.1% |
 LCAO eigensolver:                   0.959     0.000   0.0% |
  Calculate projections:             0.003     0.003   0.0% |
  DenseAtomicCorrection:             0.003     0.003   0.0% |
  Distribute overlap matrix:         0.000     0.000   0.0% |
  Orbital Layouts:                   0.009     0.009   0.0% |
  Potential matrix:                  0.944     0.944   0.2% |
 LCAO to grid:                       4.564     4.564   1.2% |
 Set positions (LCAO WFS):           0.629     0.000   0.0% |
  Basic WFS set positions:           0.001     0.001   0.0% |
  Basis functions set positions:     0.000     0.000   0.0% |
  TCI: Calculate S, T, P:            0.628     0.628   0.2% |
SCF-cycle:                         383.323     0.056   0.0% |
 Davidson:                         254.627    77.010  19.6% |-------|
  Apply hamiltonian:                11.586    11.586   2.9% ||
  Subspace diag:                    60.839     0.013   0.0% |
   calc_h_matrix:                   27.602    15.992   4.1% |-|
    Apply hamiltonian:              11.610    11.610   3.0% ||
   diagonalize:                      0.320     0.320   0.1% |
   rotate_psi:                      32.904    32.904   8.4% |--|
  calc. matrices:                   70.766    59.136  15.1% |-----|
   Apply hamiltonian:               11.629    11.629   3.0% ||
  diagonalize:                       1.346     1.346   0.3% |
  rotate_psi:                       33.079    33.079   8.4% |--|
 Density:                            2.468     0.002   0.0% |
  Atomic density matrices:           0.186     0.186   0.0% |
  Mix:                               1.603     1.603   0.4% |
  Multipole moments:                 0.045     0.045   0.0% |
  Pseudo density:                    0.633     0.631   0.2% |
   Symmetrize density:               0.001     0.001   0.0% |
 Hamiltonian:                      125.531     0.009   0.0% |
  Atomic:                           80.025     0.192   0.0% |
   XC Correction:                   79.833    79.833  20.3% |-------|
  Calculate atomic Hamiltonians:     1.014     1.014   0.3% |
  Communicate:                       0.001     0.001   0.0% |
  Hartree integrate/restrict:        0.481     0.481   0.1% |
  Poisson:                          27.619    27.619   7.0% |--|
  XC 3D grid:                       16.194    16.194   4.1% |-|
  vbar:                              0.188     0.188   0.0% |
 Orthonormalize:                     0.642     0.000   0.0% |
  calc_s_matrix:                     0.146     0.146   0.0% |
  inverse-cholesky:                  0.001     0.001   0.0% |
  projections:                       0.255     0.255   0.1% |
  rotate_psi_s:                      0.240     0.240   0.1% |
Set symmetry:                        0.001     0.001   0.0% |
Other:                               0.883     0.883   0.2% |
-----------------------------------------------------------
Total:                                       392.876 100.0%

Memory usage: 357.29 MiB
Date: Tue Mar 26 20:29:33 2019
