
  ___ ___ ___ _ _ _  
 |   |   |_  | | | | 
 | | | | | . | | | | 
 |__ |  _|___|_____|  1.4.0
 |___|_|             

User:   murakami@tssm1.eng.shizuoka.ac.jp
Date:   Thu Mar 28 15:28:57 2019
Arch:   x86_64
Pid:    31289
Python: 3.6.5
gpaw:   /home/murakami/.local/lib/python3.6/site-packages/gpaw
_gpaw:  /home/murakami/.local/lib/python3.6/site-packages/
        _gpaw.cpython-36m-x86_64-linux-gnu.so
ase:    /home/murakami/.local/lib/python3.6/site-packages/ase (version 3.16.2)
numpy:  /home/murakami/.local/lib/python3.6/site-packages/numpy (version 1.15.2)
scipy:  /home/murakami/.local/lib/python3.6/site-packages/scipy (version 1.1.0)
units:  Angstrom and eV
cores:  1

Input parameters:
  kpts: {size: (1, 1, 1)}
  maxiter: 300
  xc: PBE

System changes: positions, numbers, cell, pbc, initial_charges, initial_magmoms 

Initialize ...

Fe-setup:
  name: Iron
  id: 37abbd8d6c3c35915a9b583b742da910
  Z: 26
  valence: 8
  core: 18
  charge: 0.0
  file: /home/murakami/Public/gpaw-setups-0.9.20000/Fe.PBE.gz
  cutoffs: 1.06(comp), 2.06(filt), 2.67(core), lmax=2
  valence states:
                energy  radius
    4s(2.00)    -5.291   1.164
    4p(0.00)    -1.326   1.058
    3d(6.00)    -7.505   1.058
    *s          21.920   1.164
    *p          25.885   1.058
    *d          19.706   1.058

  Using partial waves for Fe as LCAO basis

O-setup:
  name: Oxygen
  id: 32ecd46bf208036f09c70b0ec9a88b78
  Z: 8
  valence: 6
  core: 2
  charge: 0.0
  file: /home/murakami/Public/gpaw-setups-0.9.20000/O.PBE.gz
  cutoffs: 0.67(comp), 1.17(filt), 0.83(core), lmax=2
  valence states:
                energy  radius
    2s(2.00)   -23.961   0.688
    2p(4.00)    -9.029   0.598
    *s           3.251   0.688
    *p          18.182   0.598
    *d           0.000   0.619

  Using partial waves for O as LCAO basis

F-setup:
  name: Fluorine
  id: 9cd46ba2a61e170ad72278be75b55cc0
  Z: 9
  valence: 7
  core: 2
  charge: 0.0
  file: /home/murakami/Public/gpaw-setups-0.9.20000/F.PBE.gz
  cutoffs: 0.64(comp), 1.14(filt), 0.74(core), lmax=2
  valence states:
                energy  radius
    2s(2.00)   -29.898   0.635
    2p(5.00)   -11.110   0.635
    *s          -2.687   0.635
    *p          16.102   0.635
    *d           0.000   0.635

  Using partial waves for F as LCAO basis

Reference energy: -648925.267931

Spin-paired calculation

Occupation numbers:
  Fermi-Dirac: width=0.1000 eV

Convergence criteria:
  Maximum total energy change: 0.0005 eV / electron
  Maximum integral of absolute density change: 0.0001 electrons
  Maximum integral of absolute eigenstate change: 4e-08 eV^2
  Maximum number of iterations: 300

Symmetries present (total): 1

  ( 1  0  0)
  ( 0  1  0)
  ( 0  0  1)

1 k-point (Gamma)
1 k-point in the irreducible part of the Brillouin zone
       k-points in crystal coordinates                weights
   0:     0.00000000    0.00000000    0.00000000          1/1

Wave functions: Uniform real-space grid
  Kinetic energy operator: 8*3+1=25 point O(h^6) finite-difference Laplacian
  ScaLapack parameters: grid=1x1, blocksize=None 

Eigensolver
   Davidson(niter=1, smin=None, normalize=True) 

Densities:
  Coarse grid: 48*28*76 grid
  Fine grid: 96*56*152 grid
  Total Charge: 0.000000 

Density mixing:
  Method: separate
  Backend: pulay
  Linear mixing parameter: 0.05
  Mixing with 5 old densities
  Damping of long wave oscillations: 50 

Hamiltonian:
  XC and Coulomb potentials evaluated on a 96*56*152 grid
  Using the PBE Exchange-Correlation functional
  Interpolation: tri-quintic (5. degree polynomial)
  Poisson solver: Jacobi solver with 4 multi-grid levels
    Coarsest grid: 12 x 7 x 19 points
    Stencil: 8*3+1=25 point O(h^6) finite-difference Laplacian
    Max iterations: 1000
    Tolerance: 2.000000e-10 

Memory estimate:
  Process memory now: 1099.94 MiB
  Calculator: 625.80 MiB
    Density: 116.13 MiB
      Arrays: 20.26 MiB
      Localized functions: 88.08 MiB
      Mixer: 7.79 MiB
    Hamiltonian: 35.03 MiB
      Arrays: 13.25 MiB
      XC: 0.00 MiB
      Poisson: 15.10 MiB
      vbar: 6.68 MiB
    Wavefunctions: 474.64 MiB
      Arrays psit_nG: 224.44 MiB
      Eigensolver: 234.67 MiB
      Projections: 1.66 MiB
      Projectors: 13.87 MiB

Total number of cores used: 1

Number of atoms: 52
Number of atomic orbitals: 288
Number of bands in calculation: 288
Bands to converge: occupied states only
Number of valence electrons: 376

... initialized

Initializing position-dependent things.

Density initialized from atomic densities
Creating initial wave functions:
  288 bands from LCAO basis set

                                           
                                           
                                           
                                           
                          Fe               
              F       F                    
             Fe              O             
               O        F       F          
                            Fe             
         F       F        F                
               Fe                          
            FFe    F       F               
              F        F     F             
         F     F       Fe                  
                        F   Fe             
             Fe  O        F     F          
               Fe Fe                       
            F      F   Fe  O               
              F       F     Fe             
                          Fe               
         F   FeF        F                  
                         F                 
          F     F Fe                       
            F                              
                    F     F Fe             
                                           
                                           
                                           
                                           
                                           

Positions:
   0 Fe     1.544831    2.593853    2.677597    ( 0.0000,  0.0000,  0.0000)
   1 Fe     1.550341    2.765614   10.155423    ( 0.0000,  0.0000,  0.0000)
   2 Fe     6.245427    5.273587    2.635533    ( 0.0000,  0.0000,  0.0000)
   3 Fe     6.245220    0.085880   10.113410    ( 0.0000,  0.0000,  0.0000)
   4 Fe     1.659051    2.534235   14.537576    ( 0.0000,  0.0000,  0.0000)
   5 Fe     1.653542    2.843749    7.059751    ( 0.0000,  0.0000,  0.0000)
   6 Fe     6.359647    5.213968   14.495512    ( 0.0000,  0.0000,  0.0000)
   7 Fe     6.347186    0.126451    7.037490    ( 0.0000,  0.0000,  0.0000)
   8 Fe     3.126770    0.157643   12.271643    ( 0.0000,  0.0000,  0.0000)
   9 Fe     3.121260    5.201824    4.793817    ( 0.0000,  0.0000,  0.0000)
  10 Fe     7.827365    2.837377   12.229578    ( 0.0000,  0.0000,  0.0000)
  11 Fe     7.821856    2.522090    4.751753    ( 0.0000,  0.0000,  0.0000)
  12 Fe     3.142114    0.023153    7.705724    ( 0.0000,  0.0000,  0.0000)
  13 Fe     3.136605    5.336314    0.227899    ( 0.0000,  0.0000,  0.0000)
  14 Fe     7.842710    2.702886    7.663660    ( 0.0000,  0.0000,  0.0000)
  15 Fe     7.837200    2.656581    0.185834    ( 0.0000,  0.0000,  0.0000)
  16 O      2.917647    1.433164   13.814659    ( 0.0000,  0.0000,  0.0000)
  17 O      2.912138    3.926303    6.336834    ( 0.0000,  0.0000,  0.0000)
  18 O      7.686251    4.112898   13.771986    ( 0.0000,  0.0000,  0.0000)
  19 O      7.644491    1.246569    6.294485    ( 0.0000,  0.0000,  0.0000)
  20 F      0.038986    1.976797    3.648091    ( 0.0000,  0.0000,  0.0000)
  21 F      0.044496    3.393941   11.125917    ( 0.0000,  0.0000,  0.0000)
  22 F      4.739582    4.656530    3.606027    ( 0.0000,  0.0000,  0.0000)
  23 F      4.745091    0.702937   11.083852    ( 0.0000,  0.0000,  0.0000)
  24 F      0.250004    2.119010    8.659520    ( 0.0000,  0.0000,  0.0000)
  25 F      0.244574    3.240457    1.289883    ( 0.0000,  0.0000,  0.0000)
  26 F      4.950600    4.798743    8.617455    ( 0.0000,  0.0000,  0.0000)
  27 F      4.945090    0.560724    1.139630    ( 0.0000,  0.0000,  0.0000)
  28 F      1.656639    1.147837    1.234055    ( 0.0000,  0.0000,  0.0000)
  29 F      1.662149    4.211630    8.711881    ( 0.0000,  0.0000,  0.0000)
  30 F      6.357235    3.842641    1.191991    ( 0.0000,  0.0000,  0.0000)
  31 F      6.362744    1.531896    8.669816    ( 0.0000,  0.0000,  0.0000)
  32 F      1.734912    1.090357   11.043564    ( 0.0000,  0.0000,  0.0000)
  33 F      1.708710    4.269110    3.565923    ( 0.0000,  0.0000,  0.0000)
  34 F      6.414815    3.770090   11.001684    ( 0.0000,  0.0000,  0.0000)
  35 F      6.409306    1.589377    3.523859    ( 0.0000,  0.0000,  0.0000)
  36 F      1.781522    1.081862    6.320255    ( 0.0000,  0.0000,  0.0000)
  37 F      1.787031    4.277605   13.798081    ( 0.0000,  0.0000,  0.0000)
  38 F      6.482117    3.761596    6.278191    ( 0.0000,  0.0000,  0.0000)
  39 F      6.483001    1.597871   13.756058    ( 0.0000,  0.0000,  0.0000)
  40 F      2.765405    1.859028    8.623789    ( 0.0000,  0.0000,  0.0000)
  41 F      2.759896    3.500439    1.145964    ( 0.0000,  0.0000,  0.0000)
  42 F      7.491262    4.538761    8.581499    ( 0.0000,  0.0000,  0.0000)
  43 F      7.460491    0.849127    1.103899    ( 0.0000,  0.0000,  0.0000)
  44 F      2.852290    1.637912    3.683786    ( 0.0000,  0.0000,  0.0000)
  45 F      2.857800    3.721555   11.161611    ( 0.0000,  0.0000,  0.0000)
  46 F      7.594007    4.317646    3.641353    ( 0.0000,  0.0000,  0.0000)
  47 F      7.558395    1.041821   11.119547    ( 0.0000,  0.0000,  0.0000)
  48 F      4.617957    0.679141    6.284284    ( 0.0000,  0.0000,  0.0000)
  49 F      4.623466    4.637825   13.762110    ( 0.0000,  0.0000,  0.0000)
  50 F      9.318552    3.401375    6.242220    ( 0.0000,  0.0000,  0.0000)
  51 F      9.324062    1.958092   13.720045    ( 0.0000,  0.0000,  0.0000)

Unit cell:
           periodic     x           y           z      points  spacing
  1. axis:    yes    9.401191    0.000000   -0.084129    48     0.1959
  2. axis:    yes    0.000000    5.359467    0.000000    28     0.1914
  3. axis:    yes    0.011019    0.000000   14.955651    76     0.1968

  Lengths:   9.401567   5.359467  14.955655
  Angles:   90.000000  90.470498  90.000000

Effective grid spacing dv^(1/3) = 0.1947

                     log10-error:    total        iterations:
           time      wfs    density  energy       fermi  poisson
iter:   1  15:30:00  +1.49   +inf  -311.561235    3      18     
iter:   2  15:30:29  +0.30   +inf  -313.124011    3             
iter:   3  15:30:57  -0.29   +inf  -313.550612    2             
iter:   4  15:31:29  -0.46  -1.13  -310.690308    3      13     
iter:   5  15:32:03  -0.46  -1.16  -325.051667    3      26     
iter:   6  15:32:37  -0.12  -1.12  -319.838205    35     32     
iter:   7  15:33:14  -0.27  -1.26  -314.910370    3      34     
iter:   8  15:33:49  -0.67  -1.27  -308.259606    4      33     
iter:   9  15:34:24  -0.93  -1.35  -304.198575    3      28     
iter:  10  15:34:58  -1.20  -1.37  -300.722195    3      21     
iter:  11  15:35:32  -1.72  -1.44  -300.818852    4      16     
iter:  12  15:36:06  -1.59  -1.45  -302.341254    4      25     
iter:  13  15:36:40  -1.41  -1.42  -312.131931    4      31     
iter:  14  15:37:15  -1.10  -1.34  -302.810524    3      30     
iter:  15  15:37:48  -1.26  -1.47  -301.785192    4      21     
iter:  16  15:38:24  -1.07  -1.52  -306.178811    3      27     
iter:  17  15:38:58  -1.19  -1.41  -302.116209    3      25     
iter:  18  15:39:39  -1.54  -1.53  -300.597583    4      24     
iter:  19  15:40:21  -1.92  -1.55  -301.069174    3      24     
iter:  20  15:41:00  -2.06  -1.54  -300.011981    3      26     
iter:  21  15:41:33  -1.85  -1.59  -301.446986    3      18     
iter:  22  15:42:07  -1.65  -1.54  -300.820060    3      23     
iter:  23  15:42:40  -1.82  -1.57  -301.132149    3      26     
iter:  24  15:43:14  -1.84  -1.58  -300.772922    3      26     
iter:  25  15:43:48  -1.78  -1.61  -302.489451    3      26     
iter:  26  15:44:23  -1.59  -1.57  -302.810514    3      29     
iter:  27  15:44:57  -1.65  -1.51  -301.904412    3      28     
iter:  28  15:45:31  -1.59  -1.57  -300.833492    3      19     
iter:  29  15:46:05  -2.05  -1.62  -299.836714    3      18     
iter:  30  15:46:37  -2.84  -1.69  -299.693649    3      11     
iter:  31  15:47:11  -2.27  -1.71  -301.175347    3      24     
iter:  32  15:47:45  -1.87  -1.63  -301.512803    3      27     
iter:  33  15:48:19  -1.82  -1.61  -301.807811    3      28     
iter:  34  15:48:54  -1.70  -1.61  -300.750471    3      23     
iter:  35  15:49:28  -1.63  -1.68  -302.110909    3      25     
iter:  36  15:50:09  -1.71  -1.62  -299.872161    3      24     
iter:  37  15:50:49  -2.41  -1.75  -299.954685    3      14     
iter:  38  15:51:27  -2.48  -1.75  -299.950074    2      20     
iter:  39  15:52:01  -2.14  -1.75  -302.645805    3      27     
iter:  40  15:52:36  -1.78  -1.60  -300.064186    3      27     
iter:  41  15:53:10  -1.85  -1.77  -301.759925    3      24     
iter:  42  15:53:45  -1.76  -1.66  -300.400447    3      26     
iter:  43  15:54:18  -2.22  -1.75  -300.219757    2      12     
iter:  44  15:54:51  -2.60  -1.78  -299.692599    3      21     
iter:  45  15:55:26  -2.55  -1.84  -300.079009    3      22     
iter:  46  15:56:01  -2.10  -1.82  -300.138525    3      22     
iter:  47  15:56:35  -1.89  -1.81  -302.804392    3      26     
iter:  48  15:57:09  -1.78  -1.62  -300.229440    3      27     
iter:  49  15:57:42  -2.05  -1.83  -300.479428    3      21     
iter:  50  15:58:15  -2.02  -1.83  -300.150887    3      24     
iter:  51  15:58:49  -2.06  -1.84  -301.724027    3      26     
iter:  52  15:59:25  -2.08  -1.73  -299.926869    3      26     
iter:  53  16:00:01  -2.20  -1.88  -300.790648    3      25     
iter:  54  16:00:41  -2.16  -1.78  -299.754106    3      25     
iter:  55  16:01:13  -2.43  -1.94  -300.120358    3      19     
iter:  56  16:01:48  -2.19  -1.91  -299.981349    3      13     
iter:  57  16:02:21  -2.36  -1.91  -300.065955    3      20     
iter:  58  16:02:54  -2.47  -1.91  -299.804776    3      20     
iter:  59  16:03:28  -2.41  -1.97  -301.365944    3      24     
iter:  60  16:04:03  -2.06  -1.81  -300.383415    3      26     
iter:  61  16:04:40  -2.30  -1.87  -299.850013    3      24     
iter:  62  16:05:12  -2.43  -1.99  -299.910066    2      14     
iter:  63  16:05:48  -2.60  -1.97  -299.837773    3      11     
iter:  64  16:06:26  -2.85  -2.00  -299.634988    3      18     
iter:  65  16:07:00  -2.82  -2.08  -299.919169    3      16     
iter:  66  16:07:33  -2.59  -2.00  -299.747265    2      19     
iter:  67  16:08:07  -2.86  -2.05  -299.875426    3      22     
iter:  68  16:08:40  -2.65  -2.02  -300.019012    3      22     
iter:  69  16:09:13  -2.38  -1.99  -300.306249    3      17     
iter:  70  16:09:47  -2.30  -1.98  -299.690099    3      20     
iter:  71  16:10:20  -2.72  -2.10  -299.823632    3      15     
iter:  72  16:10:53  -2.78  -2.07  -299.683016    3      19     
iter:  73  16:11:26  -3.30  -2.14  -299.653984    3      18     
iter:  74  16:11:58  -3.43  -2.16  -299.660415    2      16     
iter:  75  16:12:32  -2.94  -2.19  -299.810217    3      13     
iter:  76  16:13:06  -2.40  -2.17  -300.134772    2      23     
iter:  77  16:13:41  -2.40  -2.01  -300.058503    3      20     
iter:  78  16:14:15  -2.48  -2.08  -300.025751    3      22     
iter:  79  16:14:50  -2.62  -2.07  -299.865129    3      23     
iter:  80  16:15:24  -2.94  -2.11  -299.677673    3      20     
iter:  81  16:15:58  -2.73  -2.24  -299.881615    3      17     
iter:  82  16:16:31  -2.67  -2.15  -299.666474    3      17     
iter:  83  16:17:05  -3.02  -2.27  -299.766995    3      14     
iter:  84  16:17:39  -2.74  -2.20  -299.958503    3      21     
iter:  85  16:18:14  -2.83  -2.09  -299.635174    3      22     
iter:  86  16:18:47  -3.57  -2.32  -299.645320    3      14     
iter:  87  16:19:21  -3.45  -2.32  -299.692614    3      18     
iter:  88  16:19:55  -3.25  -2.29  -299.640847    3      15     
iter:  89  16:20:28  -3.25  -2.34  -299.702945    3      13     
iter:  90  16:21:02  -2.97  -2.30  -299.836538    3      14     
iter:  91  16:21:37  -2.58  -2.28  -299.979206    3      23     
iter:  92  16:22:11  -2.75  -2.10  -299.720685    3      22     
iter:  93  16:22:45  -2.95  -2.31  -299.688131    2      14     
iter:  94  16:23:18  -3.10  -2.38  -299.663200    2      15     
iter:  95  16:23:52  -3.55  -2.44  -299.628535    2      11     
iter:  96  16:24:25  -3.84  -2.54  -299.652136    3      12     
iter:  97  16:24:59  -3.31  -2.50  -299.744279    3      19     
iter:  98  16:25:33  -3.31  -2.34  -299.653127    3      19     
iter:  99  16:26:07  -3.47  -2.51  -299.658743    2      13     
iter: 100  16:26:40  -3.48  -2.49  -299.658234    3      14     
iter: 101  16:27:13  -3.60  -2.52  -299.627604    3      9      
iter: 102  16:27:46  -3.97  -2.61  -299.646651    3      8      
iter: 103  16:28:19  -3.80  -2.59  -299.634686    3      12     
iter: 104  16:28:53  -3.70  -2.60  -299.649101    2      17     
iter: 105  16:29:27  -3.64  -2.54  -299.657167    2      15     
iter: 106  16:30:01  -3.63  -2.58  -299.676347    3      16     
iter: 107  16:30:34  -3.43  -2.58  -299.642611    3      12     
iter: 108  16:31:08  -3.70  -2.61  -299.649660    2      14     
iter: 109  16:31:41  -3.69  -2.60  -299.628697    2      12     
iter: 110  16:32:15  -3.89  -2.65  -299.630585    3      12     
iter: 111  16:32:48  -4.30  -2.70  -299.633207    2      13     
iter: 112  16:33:20  -3.75  -2.72  -299.678076    2      16     
iter: 113  16:33:53  -3.62  -2.55  -299.634494    2      16     
iter: 114  16:34:24  -4.10  -2.71  -299.625973    2      6      
iter: 115  16:34:56  -4.34  -2.78  -299.635483    3      5      
iter: 116  16:35:29  -4.07  -2.76  -299.628134    3      11     
iter: 117  16:36:01  -4.35  -2.75  -299.628367    2      13     
iter: 118  16:36:34  -4.14  -2.78  -299.656843    2      15     
iter: 119  16:37:07  -3.77  -2.63  -299.644487    2      16     
iter: 120  16:37:40  -3.84  -2.73  -299.630917    2      6      
iter: 121  16:38:13  -4.15  -2.79  -299.634308    2      7      
iter: 122  16:38:45  -4.00  -2.79  -299.638237    2      12     
iter: 123  16:39:18  -4.22  -2.75  -299.629157    2      14     
iter: 124  16:39:49  -4.30  -2.86  -299.629429    2      6      
iter: 125  16:40:20  -4.17  -2.86  -299.631680    3      5      
iter: 126  16:40:53  -3.96  -2.92  -299.649524    2      13     
iter: 127  16:41:26  -3.87  -2.72  -299.645197    2      16     
iter: 128  16:42:03  -3.99  -2.75  -299.628794    2      13     
iter: 129  16:42:42  -4.34  -2.93  -299.627478    2      11     
iter: 130  16:43:22  -4.49  -2.93  -299.630237    2      12     
iter: 131  16:43:55  -4.43  -2.93  -299.631147    2      8      
iter: 132  16:44:27  -4.61  -2.98  -299.626526    2      7      
iter: 133  16:45:00  -4.75  -3.01  -299.627280    2      5      
iter: 134  16:45:32  -4.54  -3.00  -299.629771    2      11     
iter: 135  16:46:05  -4.57  -2.92  -299.626553    2      9      
iter: 136  16:46:40  -5.09  -3.07  -299.627642    2      8      
iter: 137  16:47:11  -4.95  -3.04  -299.625530    2      7      
iter: 138  16:47:44  -4.95  -3.06  -299.627306    2      6      
iter: 139  16:48:17  -4.99  -3.08  -299.627824    2      5      
iter: 140  16:48:48  -4.57  -3.07  -299.633359    3      6      
iter: 141  16:49:20  -4.10  -3.13  -299.630254    3      10     
iter: 142  16:49:52  -4.24  -2.98  -299.629221    3      11     
iter: 143  16:50:24  -4.38  -3.21  -299.626799    2      5      
iter: 144  16:50:55  -4.59  -3.49  -299.629898    2      10     
iter: 145  16:51:27  -4.66  -3.23  -299.629553    2      5      
iter: 146  16:51:58  -4.97  -3.30  -299.626567    1      5      
iter: 147  16:52:29  -5.64  -3.70  -299.626931    2      3      
iter: 148  16:53:07  -5.84  -3.80  -299.626339    2      4      
iter: 149  16:53:46  -5.97  -3.91  -299.626672    2      3      
iter: 150  16:54:24  -5.99  -4.15  -299.626169    2      3      
iter: 151  16:54:58  -6.05  -3.95  -299.626506    2      3      
iter: 152  16:55:30  -6.40  -4.24  -299.626449    2      3      
iter: 153  16:56:01  -6.28  -4.04  -299.626419    2      3      
iter: 154  16:56:32  -6.85  -4.21  -299.626602    2      2      
iter: 155  16:57:03  -7.16  -4.30  -299.626488    2      2      
iter: 156  16:57:35  -7.25  -4.31  -299.626352    2      2      
iter: 157  16:58:06  -7.25  -4.29  -299.626504    2      2      
iter: 158  16:58:37  -7.37  -4.35  -299.626416    2      2      
iter: 159  16:59:10  -7.09  -4.30  -299.626592    2      2      
iter: 160  16:59:42  -7.14  -4.32  -299.626453    2      2      
iter: 161  17:00:13  -7.24  -4.36  -299.626646    2      2      
iter: 162  17:00:44  -6.70  -4.36  -299.626434    2      3      
iter: 163  17:01:15  -6.50  -4.16  -299.626773    2      3      
iter: 164  17:01:46  -7.12  -4.41  -299.626498    2      2      
iter: 165  17:02:19  -6.77  -4.35  -299.626621    2      3      
iter: 166  17:02:51  -6.70  -4.18  -299.627019    2      2      
iter: 167  17:03:29  -7.14  -4.33  -299.626511    2      2      
iter: 168  17:04:06  -6.78  -4.46  -299.626868    2      3      
iter: 169  17:04:38  -6.55  -4.30  -299.626793    2      3      
iter: 170  17:05:09  -6.67  -4.19  -299.626626    2      2      
iter: 171  17:05:40  -7.79  -4.43  -299.626534    1      1      

Converged after 171 iterations.

Dipole moment: (-28.334782, -6.525201, 2.444598) |e|*Ang

Energy contributions relative to reference atoms: (reference = -648925.267931)

Kinetic:       +205.590482
Potential:     -238.749233
External:        +0.000000
XC:            -278.893993
Entropy (-ST):   -2.830942
Local:          +13.841682
--------------------------
Free energy:   -301.042005
Extrapolated:  -299.626534

Fermi level: 1.57326

 Band  Eigenvalues  Occupancy
    0    -22.25655    2.00000
    1    -22.23030    2.00000
    2    -22.13958    2.00000
    3    -22.12453    2.00000
    4    -22.07510    2.00000
    5    -22.05830    2.00000
    6    -22.01714    2.00000
    7    -21.99716    2.00000
    8    -21.93928    2.00000
    9    -21.92411    2.00000
   10    -21.90708    2.00000
   11    -21.86435    2.00000
   12    -21.66976    2.00000
   13    -21.64708    2.00000
   14    -21.63428    2.00000
   15    -21.62655    2.00000
   16    -21.56565    2.00000
   17    -21.50697    2.00000
   18    -21.48586    2.00000
   19    -21.47684    2.00000
   20    -21.46477    2.00000
   21    -21.42181    2.00000
   22    -21.41265    2.00000
   23    -21.36285    2.00000
   24    -21.35680    2.00000
   25    -21.32667    2.00000
   26    -21.29657    2.00000
   27    -21.26123    2.00000
   28    -21.13312    2.00000
   29    -21.10588    2.00000
   30    -21.10551    2.00000
   31    -21.02888    2.00000
   32    -17.00500    2.00000
   33    -16.96952    2.00000
   34    -16.80987    2.00000
   35    -16.78986    2.00000
   36     -5.38498    2.00000
   37     -5.37994    2.00000
   38     -5.28954    2.00000
   39     -5.20029    2.00000
   40     -5.18774    2.00000
   41     -5.14274    2.00000
   42     -5.13530    2.00000
   43     -5.10248    2.00000
   44     -4.90147    2.00000
   45     -4.83789    2.00000
   46     -4.73937    2.00000
   47     -4.63957    2.00000
   48     -4.59499    2.00000
   49     -4.57000    2.00000
   50     -4.54197    2.00000
   51     -4.51776    2.00000
   52     -4.48603    2.00000
   53     -4.47703    2.00000
   54     -4.47008    2.00000
   55     -4.46868    2.00000
   56     -4.42366    2.00000
   57     -4.36422    2.00000
   58     -4.35466    2.00000
   59     -4.34656    2.00000
   60     -4.31591    2.00000
   61     -4.30585    2.00000
   62     -4.29219    2.00000
   63     -4.25994    2.00000
   64     -4.22133    2.00000
   65     -4.19782    2.00000
   66     -4.18018    2.00000
   67     -4.12469    2.00000
   68     -4.10823    2.00000
   69     -4.07720    2.00000
   70     -4.06042    2.00000
   71     -4.04246    2.00000
   72     -4.01612    2.00000
   73     -4.00855    2.00000
   74     -3.98275    2.00000
   75     -3.97514    2.00000
   76     -3.95475    2.00000
   77     -3.93559    2.00000
   78     -3.89142    2.00000
   79     -3.86432    2.00000
   80     -3.77764    2.00000
   81     -3.74739    2.00000
   82     -3.66820    2.00000
   83     -3.64791    2.00000
   84     -3.59395    2.00000
   85     -3.56478    2.00000
   86     -3.52116    2.00000
   87     -3.46729    2.00000
   88     -3.43012    2.00000
   89     -3.38810    2.00000
   90     -3.37579    2.00000
   91     -3.36426    2.00000
   92     -3.29423    2.00000
   93     -3.23355    2.00000
   94     -3.20409    2.00000
   95     -3.18319    2.00000
   96     -3.11188    2.00000
   97     -3.06214    2.00000
   98     -3.04669    2.00000
   99     -3.00568    2.00000
  100     -2.99408    2.00000
  101     -2.96633    2.00000
  102     -2.94603    2.00000
  103     -2.93506    2.00000
  104     -2.92511    2.00000
  105     -2.90165    2.00000
  106     -2.88822    2.00000
  107     -2.82425    2.00000
  108     -2.79361    2.00000
  109     -2.77366    2.00000
  110     -2.76863    2.00000
  111     -2.75256    2.00000
  112     -2.72422    2.00000
  113     -2.68678    2.00000
  114     -2.61350    2.00000
  115     -2.57241    2.00000
  116     -2.54091    2.00000
  117     -2.51799    2.00000
  118     -2.48882    2.00000
  119     -2.46288    2.00000
  120     -2.45678    2.00000
  121     -2.43060    2.00000
  122     -2.41153    2.00000
  123     -2.37437    2.00000
  124     -2.35579    2.00000
  125     -2.30863    2.00000
  126     -2.25862    2.00000
  127     -2.24708    2.00000
  128     -2.22289    2.00000
  129     -2.19865    2.00000
  130     -2.17774    2.00000
  131     -2.16784    2.00000
  132     -2.14935    2.00000
  133     -2.10657    2.00000
  134     -2.06342    2.00000
  135     -2.00856    2.00000
  136     -1.99267    2.00000
  137     -1.94394    2.00000
  138     -1.90800    2.00000
  139     -1.87736    2.00000
  140     -1.86694    2.00000
  141     -1.83888    2.00000
  142     -1.79157    2.00000
  143     -1.76711    2.00000
  144      0.81965    1.99893
  145      0.83148    1.99880
  146      0.84014    1.99869
  147      0.88659    1.99792
  148      0.88806    1.99789
  149      0.89900    1.99764
  150      0.95516    1.99587
  151      0.96795    1.99531
  152      0.99193    1.99404
  153      1.01016    1.99286
  154      1.02448    1.99176
  155      1.03120    1.99119
  156      1.03737    1.99063
  157      1.05909    1.98837
  158      1.07717    1.98608
  159      1.08615    1.98479
  160      1.12051    1.97862
  161      1.15254    1.97066
  162      1.15615    1.96960
  163      1.16387    1.96720
  164      1.18903    1.95801
  165      1.19584    1.95512
  166      1.20749    1.94971
  167      1.21696    1.94485
  168      1.23385    1.93504
  169      1.23532    1.93411
  170      1.24365    1.92859
  171      1.24857    1.92512
  172      1.25707    1.91875
  173      1.26644    1.91112
  174      1.28011    1.89876
  175      1.28870    1.89018
  176      1.31399    1.86078
  177      1.35739    1.79296
  178      1.36207    1.78410
  179      1.37254    1.76309
  180      1.39778    1.70511
  181      1.41439    1.66087
  182      1.43720    1.59170
  183      1.43924    1.58505
  184      1.44890    1.55238
  185      1.46534    1.49269
  186      1.50053    1.34842
  187      1.52353    1.24366
  188      1.57865    0.97304
  189      1.58494    0.94166
  190      1.60458    0.84467
  191      1.66808    0.55849
  192      1.68560    0.49076
  193      1.70729    0.41493
  194      1.71170    0.40059
  195      1.72787    0.35130
  196      1.81222    0.16793
  197      1.82731    0.14614
  198      1.88344    0.08606
  199      1.89079    0.08021
  200      1.91081    0.06614
  201      1.91973    0.06066
  202      1.93778    0.05090
  203      2.01350    0.02420
  204      2.09839    0.01043
  205      2.15049    0.00621
  206      2.22788    0.00287
  207      2.24454    0.00243
  208      2.27228    0.00184
  209      2.42149    0.00041
  210      2.43789    0.00035
  211      2.47485    0.00024
  212      2.49109    0.00021
  213      2.53280    0.00014
  214      2.58466    0.00008
  215      2.69936    0.00003
  216      2.71836    0.00002
  217      2.72163    0.00002
  218      2.81656    0.00001
  219      2.82543    0.00001
  220      2.85464    0.00001
  221      2.91284    0.00000
  222      2.97904    0.00000
  223      3.02271    0.00000
  224      4.90800    0.00000
  225      5.73984    0.00000
  226      6.21009    0.00000
  227      6.79746    0.00000
  228      7.39348    0.00000
  229      7.67734    0.00000
  230      7.75738    0.00000
  231      7.97448    0.00000
  232      8.23258    0.00000
  233      8.46158    0.00000
  234      8.61399    0.00000
  235      8.92910    0.00000
  236      9.88387    0.00000
  237     10.03311    0.00000
  238     10.05673    0.00000
  239     10.12644    0.00000
  240     10.41072    0.00000
  241     10.77346    0.00000
  242     10.81464    0.00000
  243     10.89067    0.00000
  244     10.98355    0.00000
  245     10.99560    0.00000
  246     11.03376    0.00000
  247     11.23431    0.00000
  248     11.27683    0.00000
  249     11.41928    0.00000
  250     11.54994    0.00000
  251     11.65639    0.00000
  252     11.74254    0.00000
  253     11.86998    0.00000
  254     11.90953    0.00000
  255     11.91756    0.00000
  256     12.02761    0.00000
  257     12.06277    0.00000
  258     12.22405    0.00000
  259     12.31342    0.00000
  260     12.35554    0.00000
  261     12.38043    0.00000
  262     12.49018    0.00000
  263     12.49435    0.00000
  264     12.52240    0.00000
  265     12.55263    0.00000
  266     12.61606    0.00000
  267     12.64047    0.00000
  268     12.69010    0.00000
  269     12.75024    0.00000
  270     12.84797    0.00000
  271     13.02578    0.00000
  272     13.05938    0.00000
  273     13.15507    0.00000
  274     13.22400    0.00000
  275     13.25163    0.00000
  276     13.34835    0.00000
  277     13.37787    0.00000
  278     13.48327    0.00000
  279     13.52344    0.00000
  280     13.70861    0.00000
  281     14.01337    0.00000
  282     14.05503    0.00000
  283     14.23307    0.00000
  284     14.37581    0.00000
  285     14.42708    0.00000
  286     14.51432    0.00000
  287     14.52803    0.00000

Timing:                              incl.     excl.
-----------------------------------------------------------
Hamiltonian:                         5.217     0.000   0.0% |
 Atomic:                             2.292     0.006   0.0% |
  XC Correction:                     2.287     2.287   0.0% |
 Calculate atomic Hamiltonians:      0.035     0.035   0.0% |
 Communicate:                        0.000     0.000   0.0% |
 Hartree integrate/restrict:         0.023     0.023   0.0% |
 Initialize Hamiltonian:             0.000     0.000   0.0% |
 Poisson:                            2.206     2.206   0.0% |
 XC 3D grid:                         0.654     0.654   0.0% |
 vbar:                               0.005     0.005   0.0% |
LCAO initialization:                21.746     0.229   0.0% |
 LCAO eigensolver:                   2.108     0.000   0.0% |
  Calculate projections:             0.023     0.023   0.0% |
  DenseAtomicCorrection:             0.023     0.023   0.0% |
  Distribute overlap matrix:         0.000     0.000   0.0% |
  Orbital Layouts:                   0.061     0.061   0.0% |
  Potential matrix:                  2.000     2.000   0.0% |
 LCAO to grid:                      18.215    18.215   0.3% |
 Set positions (LCAO WFS):           1.194     0.000   0.0% |
  Basic WFS set positions:           0.001     0.001   0.0% |
  Basis functions set positions:     0.000     0.000   0.0% |
  TCI: Calculate S, T, P:            1.192     1.192   0.0% |
SCF-cycle:                        5774.430     0.134   0.0% |
 Davidson:                        4929.429   741.841  12.8% |----|
  Apply hamiltonian:               113.041   113.041   1.9% ||
  Subspace diag:                  1445.498     0.034   0.0% |
   calc_h_matrix:                  561.700   448.339   7.7% |--|
    Apply hamiltonian:             113.361   113.361   2.0% ||
   diagonalize:                      3.716     3.716   0.1% |
   rotate_psi:                     880.047   880.047  15.2% |-----|
  calc. matrices:                 1727.144  1614.016  27.8% |----------|
   Apply hamiltonian:              113.129   113.129   1.9% ||
  diagonalize:                      16.180    16.180   0.3% |
  rotate_psi:                      885.723   885.723  15.3% |-----|
 Density:                           17.544     0.005   0.0% |
  Atomic density matrices:           0.949     0.949   0.0% |
  Mix:                               8.201     8.201   0.1% |
  Multipole moments:                 0.193     0.193   0.0% |
  Pseudo density:                    8.195     8.192   0.1% |
   Symmetrize density:               0.004     0.004   0.0% |
 Hamiltonian:                      821.653     0.023   0.0% |
  Atomic:                          387.992     0.812   0.0% |
   XC Correction:                  387.180   387.180   6.7% |--|
  Calculate atomic Hamiltonians:     5.124     5.124   0.1% |
  Communicate:                       0.002     0.002   0.0% |
  Hartree integrate/restrict:        3.412     3.412   0.1% |
  Poisson:                         314.534   314.534   5.4% |-|
  XC 3D grid:                      109.573   109.573   1.9% ||
  vbar:                              0.993     0.993   0.0% |
 Orthonormalize:                     5.670     0.000   0.0% |
  calc_s_matrix:                     1.597     1.597   0.0% |
  inverse-cholesky:                  0.005     0.005   0.0% |
  projections:                       1.413     1.413   0.0% |
  rotate_psi_s:                      2.654     2.654   0.0% |
Set symmetry:                        0.001     0.001   0.0% |
Other:                               1.298     1.298   0.0% |
-----------------------------------------------------------
Total:                                      5802.691 100.0%

Memory usage: 1.07 GiB
Date: Thu Mar 28 17:05:40 2019
