
  ___ ___ ___ _ _ _  
 |   |   |_  | | | | 
 | | | | | . | | | | 
 |__ |  _|___|_____|  1.4.0
 |___|_|             

User:   murakami@tssm1.eng.shizuoka.ac.jp
Date:   Thu Mar 28 18:31:51 2019
Arch:   x86_64
Pid:    31289
Python: 3.6.5
gpaw:   /home/murakami/.local/lib/python3.6/site-packages/gpaw
_gpaw:  /home/murakami/.local/lib/python3.6/site-packages/
        _gpaw.cpython-36m-x86_64-linux-gnu.so
ase:    /home/murakami/.local/lib/python3.6/site-packages/ase (version 3.16.2)
numpy:  /home/murakami/.local/lib/python3.6/site-packages/numpy (version 1.15.2)
scipy:  /home/murakami/.local/lib/python3.6/site-packages/scipy (version 1.1.0)
units:  Angstrom and eV
cores:  1

Input parameters:
  kpts: {size: (1, 1, 1)}
  maxiter: 300
  xc: PBE

System changes: positions, numbers, cell, pbc, initial_charges, initial_magmoms 

Initialize ...

Fe-setup:
  name: Iron
  id: 37abbd8d6c3c35915a9b583b742da910
  Z: 26
  valence: 8
  core: 18
  charge: 0.0
  file: /home/murakami/Public/gpaw-setups-0.9.20000/Fe.PBE.gz
  cutoffs: 1.06(comp), 2.06(filt), 2.67(core), lmax=2
  valence states:
                energy  radius
    4s(2.00)    -5.291   1.164
    4p(0.00)    -1.326   1.058
    3d(6.00)    -7.505   1.058
    *s          21.920   1.164
    *p          25.885   1.058
    *d          19.706   1.058

  Using partial waves for Fe as LCAO basis

O-setup:
  name: Oxygen
  id: 32ecd46bf208036f09c70b0ec9a88b78
  Z: 8
  valence: 6
  core: 2
  charge: 0.0
  file: /home/murakami/Public/gpaw-setups-0.9.20000/O.PBE.gz
  cutoffs: 0.67(comp), 1.17(filt), 0.83(core), lmax=2
  valence states:
                energy  radius
    2s(2.00)   -23.961   0.688
    2p(4.00)    -9.029   0.598
    *s           3.251   0.688
    *p          18.182   0.598
    *d           0.000   0.619

  Using partial waves for O as LCAO basis

F-setup:
  name: Fluorine
  id: 9cd46ba2a61e170ad72278be75b55cc0
  Z: 9
  valence: 7
  core: 2
  charge: 0.0
  file: /home/murakami/Public/gpaw-setups-0.9.20000/F.PBE.gz
  cutoffs: 0.64(comp), 1.14(filt), 0.74(core), lmax=2
  valence states:
                energy  radius
    2s(2.00)   -29.898   0.635
    2p(5.00)   -11.110   0.635
    *s          -2.687   0.635
    *p          16.102   0.635
    *d           0.000   0.635

  Using partial waves for F as LCAO basis

Reference energy: -648925.267931

Spin-paired calculation

Occupation numbers:
  Fermi-Dirac: width=0.1000 eV

Convergence criteria:
  Maximum total energy change: 0.0005 eV / electron
  Maximum integral of absolute density change: 0.0001 electrons
  Maximum integral of absolute eigenstate change: 4e-08 eV^2
  Maximum number of iterations: 300

Symmetries present (total): 1

  ( 1  0  0)
  ( 0  1  0)
  ( 0  0  1)

1 k-point (Gamma)
1 k-point in the irreducible part of the Brillouin zone
       k-points in crystal coordinates                weights
   0:     0.00000000    0.00000000    0.00000000          1/1

Wave functions: Uniform real-space grid
  Kinetic energy operator: 8*3+1=25 point O(h^6) finite-difference Laplacian
  ScaLapack parameters: grid=1x1, blocksize=None 

Eigensolver
   Davidson(niter=1, smin=None, normalize=True) 

Densities:
  Coarse grid: 48*28*76 grid
  Fine grid: 96*56*152 grid
  Total Charge: 0.000000 

Density mixing:
  Method: separate
  Backend: pulay
  Linear mixing parameter: 0.05
  Mixing with 5 old densities
  Damping of long wave oscillations: 50 

Hamiltonian:
  XC and Coulomb potentials evaluated on a 96*56*152 grid
  Using the PBE Exchange-Correlation functional
  Interpolation: tri-quintic (5. degree polynomial)
  Poisson solver: Jacobi solver with 4 multi-grid levels
    Coarsest grid: 12 x 7 x 19 points
    Stencil: 8*3+1=25 point O(h^6) finite-difference Laplacian
    Max iterations: 1000
    Tolerance: 2.000000e-10 

Memory estimate:
  Process memory now: 1099.94 MiB
  Calculator: 626.60 MiB
    Density: 116.78 MiB
      Arrays: 20.26 MiB
      Localized functions: 88.72 MiB
      Mixer: 7.79 MiB
    Hamiltonian: 35.08 MiB
      Arrays: 13.25 MiB
      XC: 0.00 MiB
      Poisson: 15.10 MiB
      vbar: 6.73 MiB
    Wavefunctions: 474.74 MiB
      Arrays psit_nG: 224.44 MiB
      Eigensolver: 234.67 MiB
      Projections: 1.66 MiB
      Projectors: 13.97 MiB

Total number of cores used: 1

Number of atoms: 52
Number of atomic orbitals: 288
Number of bands in calculation: 288
Bands to converge: occupied states only
Number of valence electrons: 376

... initialized

Initializing position-dependent things.

Density initialized from atomic densities
Creating initial wave functions:
  288 bands from LCAO basis set

                                           
                                           
                                           
                                           
                          Fe               
              F       F                    
             Fe              O             
               O        F       F          
                            Fe             
         F       F        F                
               Fe                          
            FFe    F       F               
              F        F     F             
         F     F       Fe                  
                        F   Fe             
             Fe  O        F     F          
               Fe Fe                       
            F      F   Fe  O               
              F       F     Fe             
                          Fe               
         F   FeF        F                  
                          F                
          F     F Fe                       
            F                              
                    F     F Fe             
                                           
                                           
                                           
                                           
                                           

Positions:
   0 Fe     1.531713    2.593853    2.677597    ( 0.0000,  0.0000,  0.0000)
   1 Fe     1.531713    2.765614   10.155423    ( 0.0000,  0.0000,  0.0000)
   2 Fe     6.198384    5.273587    2.635533    ( 0.0000,  0.0000,  0.0000)
   3 Fe     6.198384    0.085880   10.113358    ( 0.0000,  0.0000,  0.0000)
   4 Fe     1.636434    2.534235   14.537576    ( 0.0000,  0.0000,  0.0000)
   5 Fe     1.636434    2.825232    7.066690    ( 0.0000,  0.0000,  0.0000)
   6 Fe     6.293529    5.213968   14.497587    ( 0.0000,  0.0000,  0.0000)
   7 Fe     6.303105    0.145499    7.017686    ( 0.0000,  0.0000,  0.0000)
   8 Fe     3.133642    0.157643   12.271296    ( 0.0000,  0.0000,  0.0000)
   9 Fe     3.095207    5.201824    4.793817    ( 0.0000,  0.0000,  0.0000)
  10 Fe     7.761878    2.837377   12.229578    ( 0.0000,  0.0000,  0.0000)
  11 Fe     7.761878    2.522090    4.625004    ( 0.0000,  0.0000,  0.0000)
  12 Fe     3.113780    0.023153    7.705724    ( 0.0000,  0.0000,  0.0000)
  13 Fe     3.113780    5.336314    0.227899    ( 0.0000,  0.0000,  0.0000)
  14 Fe     7.780451    2.702886    7.663660    ( 0.0000,  0.0000,  0.0000)
  15 Fe     7.780722    2.656581    0.185832    ( 0.0000,  0.0000,  0.0000)
  16 O      2.886467    1.433164   13.814659    ( 0.0000,  0.0000,  0.0000)
  17 O      2.886467    3.926303    6.336834    ( 0.0000,  0.0000,  0.0000)
  18 O      7.553138    4.112898   13.772595    ( 0.0000,  0.0000,  0.0000)
  19 O      7.553138    1.246569    6.294769    ( 0.0000,  0.0000,  0.0000)
  20 F      0.036036    1.976797    3.648091    ( 0.0000,  0.0000,  0.0000)
  21 F     -0.014569    3.382670   11.126373    ( 0.0000,  0.0000,  0.0000)
  22 F      4.790151    4.656530    3.605239    ( 0.0000,  0.0000,  0.0000)
  23 F      4.702707    0.702937   11.083852    ( 0.0000,  0.0000,  0.0000)
  24 F      0.241864    2.119010    8.659520    ( 0.0000,  0.0000,  0.0000)
  25 F      0.277751    3.240457    1.181371    ( 0.0000,  0.0000,  0.0000)
  26 F      4.908535    4.798743    8.617455    ( 0.0000,  0.0000,  0.0000)
  27 F      4.908535    0.560724    1.139630    ( 0.0000,  0.0000,  0.0000)
  28 F      1.643770    1.147837    1.234055    ( 0.0000,  0.0000,  0.0000)
  29 F      1.643770    4.211630    8.711881    ( 0.0000,  0.0000,  0.0000)
  30 F      6.336751    3.827571    1.191753    ( 0.0000,  0.0000,  0.0000)
  31 F      6.310441    1.540745    8.669816    ( 0.0000,  0.0000,  0.0000)
  32 F      1.693759    1.090357   11.043749    ( 0.0000,  0.0000,  0.0000)
  33 F      1.786075    4.269110    3.565091    ( 0.0000,  0.0000,  0.0000)
  34 F      6.360430    3.770090   11.001684    ( 0.0000,  0.0000,  0.0000)
  35 F      6.360430    1.589377    3.523859    ( 0.0000,  0.0000,  0.0000)
  36 F      1.764030    1.081862    6.320255    ( 0.0000,  0.0000,  0.0000)
  37 F      1.749339    4.277605   13.798213    ( 0.0000,  0.0000,  0.0000)
  38 F      6.430701    3.761596    6.278191    ( 0.0000,  0.0000,  0.0000)
  39 F      6.430701    1.597871   13.832455    ( 0.0000,  0.0000,  0.0000)
  40 F      2.739121    1.859028    8.623789    ( 0.0000,  0.0000,  0.0000)
  41 F      2.739121    3.500439    1.145964    ( 0.0000,  0.0000,  0.0000)
  42 F      7.405792    4.538761    8.581725    ( 0.0000,  0.0000,  0.0000)
  43 F      7.405792    0.820706    1.053618    ( 0.0000,  0.0000,  0.0000)
  44 F      2.828992    1.637912    3.683786    ( 0.0000,  0.0000,  0.0000)
  45 F      2.828992    3.721555   11.161611    ( 0.0000,  0.0000,  0.0000)
  46 F      7.495663    4.317646    3.607847    ( 0.0000,  0.0000,  0.0000)
  47 F      7.495663    1.041821   11.119547    ( 0.0000,  0.0000,  0.0000)
  48 F      4.580002    0.721642    6.284284    ( 0.0000,  0.0000,  0.0000)
  49 F      4.580002    4.637825   13.832521    ( 0.0000,  0.0000,  0.0000)
  50 F      9.246673    3.401375    6.242220    ( 0.0000,  0.0000,  0.0000)
  51 F      9.246673    1.958092   13.807581    ( 0.0000,  0.0000,  0.0000)

Unit cell:
           periodic     x           y           z      points  spacing
  1. axis:    yes    9.333342    0.000000   -0.084129    48     0.1944
  2. axis:    yes    0.000000    5.359467    0.000000    28     0.1914
  3. axis:    yes    0.000000    0.000000   14.955651    76     0.1968

  Lengths:   9.333721   5.359467  14.955651
  Angles:   90.000000  90.516439  90.000000

Effective grid spacing dv^(1/3) = 0.1942

                     log10-error:    total        iterations:
           time      wfs    density  energy       fermi  poisson
iter:   1  18:33:16  +1.50   +inf  -311.732925    3      19     
iter:   2  18:33:50  +0.31   +inf  -313.334756    3             
iter:   3  18:34:32  -0.28   +inf  -313.773624    2             
iter:   4  18:35:24  -0.46  -1.13  -311.021136    3      18     
iter:   5  18:36:04  -0.43  -1.16  -324.302727    3      27     
iter:   6  18:36:45  -0.10  -1.13  -337.308123    3      35     
iter:   7  18:37:32  -0.25  -1.21  -319.367639    4      36     
iter:   8  18:38:16  -0.52  -1.25  -307.561775    4      33     
iter:   9  18:39:08  -0.87  -1.34  -312.229556    4      32     
iter:  10  18:39:53  -1.11  -1.32  -301.219132    3      29     
iter:  11  18:40:34  -1.74  -1.44  -301.043580    3      19     
iter:  12  18:41:08  -1.78  -1.46  -303.469590    4      27     
iter:  13  18:41:42  -1.39  -1.41  -305.818780    3      31     
iter:  14  18:42:18  -1.32  -1.38  -304.935013    3      29     
iter:  15  18:42:54  -1.34  -1.41  -314.812598    4      32     
iter:  16  18:43:29  -1.01  -1.34  -304.109812    3      32     
iter:  17  18:44:03  -1.41  -1.42  -300.891667    3      27     
iter:  18  18:44:36  -2.00  -1.50  -301.538631    4      20     
iter:  19  18:45:10  -1.73  -1.49  -302.715805    3      28     
iter:  20  18:45:44  -1.74  -1.47  -301.268381    3      28     
iter:  21  18:46:18  -1.51  -1.51  -302.997498    4      26     
iter:  22  18:46:59  -1.44  -1.52  -302.702763    3      28     
iter:  23  18:47:41  -1.31  -1.53  -304.829797    3      27     
iter:  24  18:48:20  -1.24  -1.49  -303.654139    4      26     
iter:  25  18:49:06  -1.57  -1.54  -300.711989    3      27     
iter:  26  18:49:50  -1.41  -1.70  -304.166136    3      27     
iter:  27  18:50:34  -1.46  -1.55  -301.715627    3      30     
iter:  28  18:51:26  -1.88  -1.66  -300.403433    2      25     
iter:  29  18:52:10  -2.08  -1.76  -301.005529    3      19     
iter:  30  18:52:56  -2.00  -1.71  -300.490879    3      21     
iter:  31  18:53:38  -2.60  -1.75  -300.099640    3      22     
iter:  32  18:54:30  -2.08  -1.79  -301.692373    3      24     
iter:  33  18:55:06  -1.77  -1.69  -301.422180    2      28     
iter:  34  18:55:40  -1.97  -1.71  -300.381865    3      26     
iter:  35  18:56:14  -1.97  -1.79  -301.874493    3      25     
iter:  36  18:56:48  -1.74  -1.71  -300.934427    3      24     
iter:  37  18:57:22  -1.87  -1.82  -300.457932    3      21     
iter:  38  18:57:59  -1.98  -1.81  -301.831598    3      23     
iter:  39  18:58:37  -1.96  -1.75  -300.547242    3      25     
iter:  40  18:59:10  -1.83  -1.92  -301.050664    2      17     
iter:  41  18:59:48  -1.83  -1.83  -300.750218    3      19     
iter:  42  19:00:26  -2.16  -1.88  -300.308397    3      18     
iter:  43  19:01:00  -2.15  -1.99  -300.773126    3      24     
iter:  44  19:01:33  -2.20  -1.87  -300.420536    3      23     
iter:  45  19:02:08  -2.66  -1.96  -300.038396    3      21     
iter:  46  19:02:41  -3.13  -2.09  -299.991061    3      16     
iter:  47  19:03:13  -3.79  -2.11  -299.977209    2      8      
iter:  48  19:03:48  -3.58  -2.12  -299.999194    3      15     
iter:  49  19:04:21  -2.76  -2.14  -300.240890    3      21     
iter:  50  19:04:55  -2.47  -2.07  -300.219169    3      19     
iter:  51  19:05:29  -2.36  -2.18  -300.659363    3      23     
iter:  52  19:06:04  -2.36  -2.00  -300.425169    2      25     
iter:  53  19:06:39  -2.25  -2.13  -300.297424    3      20     
iter:  54  19:07:13  -2.55  -2.13  -300.100595    3      21     
iter:  55  19:07:48  -3.26  -2.27  -299.973239    3      18     
iter:  56  19:08:20  -3.64  -2.45  -299.993050    2      7      
iter:  57  19:08:55  -3.17  -2.41  -300.082746    3      18     
iter:  58  19:09:35  -2.88  -2.28  -300.195232    3      22     
iter:  59  19:10:16  -2.86  -2.21  -299.979904    3      19     
iter:  60  19:11:03  -3.31  -2.47  -300.001592    3      11     
iter:  61  19:11:50  -3.23  -2.46  -299.970819    3      14     
iter:  62  19:12:33  -3.82  -2.50  -299.980402    3      9      
iter:  63  19:13:09  -3.69  -2.52  -299.987531    2      6      
iter:  64  19:13:43  -3.35  -2.52  -300.049900    3      9      
iter:  65  19:14:17  -2.90  -2.47  -300.014196    3      13     
iter:  66  19:14:51  -3.01  -2.42  -300.066924    3      16     
iter:  67  19:15:26  -3.10  -2.45  -300.050079    3      21     
iter:  68  19:16:00  -3.23  -2.41  -299.974842    3      16     
iter:  69  19:16:33  -3.78  -2.63  -299.961496    2      7      
iter:  70  19:17:06  -4.27  -2.73  -299.964574    2      7      
iter:  71  19:17:40  -3.78  -2.76  -299.978374    2      5      
iter:  72  19:18:14  -3.68  -2.70  -299.998730    3      15     
iter:  73  19:18:47  -3.65  -2.60  -299.968648    3      11     
iter:  74  19:19:21  -3.88  -2.74  -299.978773    2      14     
iter:  75  19:19:55  -3.88  -2.70  -299.969274    2      10     
iter:  76  19:20:29  -4.18  -2.77  -299.977173    2      13     
iter:  77  19:21:02  -4.15  -2.74  -299.961818    2      13     
iter:  78  19:21:35  -4.50  -2.86  -299.966669    2      5      
iter:  79  19:22:08  -4.55  -2.85  -299.967659    2      10     
iter:  80  19:22:41  -4.32  -2.83  -299.973528    2      13     
iter:  81  19:23:14  -3.97  -2.82  -299.967943    3      9      
iter:  82  19:23:48  -4.02  -2.81  -299.968228    2      12     
iter:  83  19:24:21  -3.94  -2.81  -299.973915    2      14     
iter:  84  19:24:55  -4.18  -2.82  -299.966406    2      8      
iter:  85  19:25:27  -4.61  -2.89  -299.965311    2      9      
iter:  86  19:25:59  -4.73  -2.95  -299.963653    2      6      
iter:  87  19:26:30  -4.35  -2.97  -299.969584    2      6      
iter:  88  19:27:03  -4.10  -2.91  -299.983245    2      13     
iter:  89  19:27:35  -4.07  -2.74  -299.965395    2      13     
iter:  90  19:28:07  -4.37  -2.97  -299.965973    2      6      
iter:  91  19:28:41  -4.57  -2.94  -299.964041    2      10     
iter:  92  19:29:14  -5.05  -3.02  -299.964676    2      5      
iter:  93  19:29:46  -4.66  -3.06  -299.963749    2      5      
iter:  94  19:30:17  -4.45  -3.00  -299.961080    2      6      
iter:  95  19:30:51  -4.40  -3.01  -299.966369    2      7      
iter:  96  19:31:24  -4.49  -3.06  -299.968015    2      7      
iter:  97  19:31:57  -4.35  -3.00  -299.970200    2      12     
iter:  98  19:32:29  -4.56  -2.94  -299.962960    2      10     
iter:  99  19:33:01  -5.12  -3.12  -299.963216    2      6      
iter: 100  19:33:32  -5.36  -3.17  -299.964208    2      4      
iter: 101  19:34:10  -4.96  -3.17  -299.961912    2      4      
iter: 102  19:34:43  -4.96  -3.15  -299.964604    2      5      
iter: 103  19:35:23  -4.49  -3.14  -299.976220    2      13     
iter: 104  19:36:04  -4.30  -2.89  -299.968107    2      13     
iter: 105  19:36:47  -4.54  -3.07  -299.962906    2      10     
iter: 106  19:37:31  -4.89  -3.17  -299.963281    2      5      
iter: 107  19:38:14  -4.86  -3.17  -299.964905    2      4      
iter: 108  19:38:55  -5.02  -3.21  -299.962978    2      5      
iter: 109  19:39:35  -4.98  -3.25  -299.962689    2      6      
iter: 110  19:40:20  -4.71  -3.26  -299.964380    2      9      
iter: 111  19:41:12  -4.27  -3.23  -299.976978    2      12     
iter: 112  19:41:49  -4.29  -2.98  -299.968001    2      13     
iter: 113  19:42:21  -4.70  -3.19  -299.964419    2      8      
iter: 114  19:42:53  -5.01  -3.39  -299.963317    2      5      
iter: 115  19:43:25  -5.20  -3.47  -299.963012    2      4      
iter: 116  19:43:56  -5.19  -3.43  -299.964234    2      4      
iter: 117  19:44:29  -5.78  -3.49  -299.962905    2      3      
iter: 118  19:45:02  -5.61  -3.56  -299.963919    2      4      
iter: 119  19:45:33  -5.48  -3.52  -299.962324    2      5      
iter: 120  19:46:06  -4.98  -3.66  -299.964997    2      5      
iter: 121  19:46:40  -5.11  -3.46  -299.963523    2      5      
iter: 122  19:47:12  -5.05  -3.67  -299.966835    2      6      
iter: 123  19:47:43  -5.07  -3.44  -299.963708    2      5      
iter: 124  19:48:15  -5.92  -3.90  -299.963040    2      3      
iter: 125  19:48:46  -6.26  -3.92  -299.963325    2      3      
iter: 126  19:49:17  -6.39  -3.91  -299.962892    2      2      
iter: 127  19:49:48  -6.33  -3.96  -299.963416    2      3      
iter: 128  19:50:21  -5.99  -3.96  -299.963293    2      3      
iter: 129  19:50:54  -6.14  -3.90  -299.962727    2      3      
iter: 130  19:51:33  -6.06  -3.98  -299.963644    2      3      
iter: 131  19:52:12  -6.40  -3.98  -299.963153    2      3      
iter: 132  19:52:50  -6.70  -4.02  -299.963385    2      2      
iter: 133  19:53:22  -6.86  -4.09  -299.963165    2      3      
iter: 134  19:53:53  -6.38  -4.14  -299.963471    2      3      
iter: 135  19:54:27  -6.42  -4.02  -299.963230    2      3      
iter: 136  19:54:58  -6.30  -4.14  -299.963276    2      3      
iter: 137  19:55:30  -6.35  -4.03  -299.963568    2      3      
iter: 138  19:56:05  -6.73  -4.15  -299.963156    2      2      
iter: 139  19:56:49  -6.92  -4.21  -299.963318    2      2      
iter: 140  19:57:30  -6.84  -4.20  -299.963139    2      2      
iter: 141  19:58:20  -6.70  -4.24  -299.963244    2      2      
iter: 142  19:59:05  -6.78  -4.18  -299.963219    1      2      
iter: 143  19:59:51  -7.02  -4.29  -299.963467    2      2      
iter: 144  20:00:33  -7.06  -4.24  -299.963208    2      2      
iter: 145  20:01:12  -7.45  -4.34  -299.963383    2      2      

Converged after 145 iterations.

Dipole moment: (-22.745358, -6.789912, 2.968155) |e|*Ang

Energy contributions relative to reference atoms: (reference = -648925.267931)

Kinetic:       +223.801727
Potential:     -253.403114
External:        +0.000000
XC:            -282.693588
Entropy (-ST):   -2.775253
Local:          +13.719218
--------------------------
Free energy:   -301.351009
Extrapolated:  -299.963383

Fermi level: 1.69805

 Band  Eigenvalues  Occupancy
    0    -22.33201    2.00000
    1    -22.22537    2.00000
    2    -22.15152    2.00000
    3    -22.11208    2.00000
    4    -22.03960    2.00000
    5    -22.00902    2.00000
    6    -21.96113    2.00000
    7    -21.94221    2.00000
    8    -21.85530    2.00000
    9    -21.81523    2.00000
   10    -21.79593    2.00000
   11    -21.72667    2.00000
   12    -21.69210    2.00000
   13    -21.63818    2.00000
   14    -21.58160    2.00000
   15    -21.57081    2.00000
   16    -21.55867    2.00000
   17    -21.55390    2.00000
   18    -21.51741    2.00000
   19    -21.48584    2.00000
   20    -21.45567    2.00000
   21    -21.45020    2.00000
   22    -21.44143    2.00000
   23    -21.41083    2.00000
   24    -21.38309    2.00000
   25    -21.34595    2.00000
   26    -21.33696    2.00000
   27    -21.28131    2.00000
   28    -21.19020    2.00000
   29    -21.06942    2.00000
   30    -21.06839    2.00000
   31    -21.03185    2.00000
   32    -16.86651    2.00000
   33    -16.85396    2.00000
   34    -16.84416    2.00000
   35    -16.66850    2.00000
   36     -5.39056    2.00000
   37     -5.37066    2.00000
   38     -5.24604    2.00000
   39     -5.20772    2.00000
   40     -5.16824    2.00000
   41     -5.10711    2.00000
   42     -5.09509    2.00000
   43     -5.00941    2.00000
   44     -4.94127    2.00000
   45     -4.80223    2.00000
   46     -4.73362    2.00000
   47     -4.68814    2.00000
   48     -4.62741    2.00000
   49     -4.62421    2.00000
   50     -4.56198    2.00000
   51     -4.52813    2.00000
   52     -4.49447    2.00000
   53     -4.47155    2.00000
   54     -4.43561    2.00000
   55     -4.40958    2.00000
   56     -4.39862    2.00000
   57     -4.38951    2.00000
   58     -4.37028    2.00000
   59     -4.34320    2.00000
   60     -4.31899    2.00000
   61     -4.30858    2.00000
   62     -4.27968    2.00000
   63     -4.26012    2.00000
   64     -4.23547    2.00000
   65     -4.20250    2.00000
   66     -4.19262    2.00000
   67     -4.11586    2.00000
   68     -4.07876    2.00000
   69     -4.07744    2.00000
   70     -4.04900    2.00000
   71     -4.01913    2.00000
   72     -4.00915    2.00000
   73     -3.96975    2.00000
   74     -3.96330    2.00000
   75     -3.92468    2.00000
   76     -3.89112    2.00000
   77     -3.88607    2.00000
   78     -3.86403    2.00000
   79     -3.78368    2.00000
   80     -3.77079    2.00000
   81     -3.68300    2.00000
   82     -3.61960    2.00000
   83     -3.60424    2.00000
   84     -3.55642    2.00000
   85     -3.53514    2.00000
   86     -3.48761    2.00000
   87     -3.43538    2.00000
   88     -3.37232    2.00000
   89     -3.34611    2.00000
   90     -3.32450    2.00000
   91     -3.30365    2.00000
   92     -3.23106    2.00000
   93     -3.19654    2.00000
   94     -3.18000    2.00000
   95     -3.12612    2.00000
   96     -3.11410    2.00000
   97     -3.10918    2.00000
   98     -3.08744    2.00000
   99     -3.02610    2.00000
  100     -2.99691    2.00000
  101     -2.95634    2.00000
  102     -2.93557    2.00000
  103     -2.89870    2.00000
  104     -2.87722    2.00000
  105     -2.87251    2.00000
  106     -2.85429    2.00000
  107     -2.83240    2.00000
  108     -2.81517    2.00000
  109     -2.77199    2.00000
  110     -2.76595    2.00000
  111     -2.70448    2.00000
  112     -2.68109    2.00000
  113     -2.66068    2.00000
  114     -2.60041    2.00000
  115     -2.53750    2.00000
  116     -2.51247    2.00000
  117     -2.46860    2.00000
  118     -2.45116    2.00000
  119     -2.43671    2.00000
  120     -2.41202    2.00000
  121     -2.40130    2.00000
  122     -2.39681    2.00000
  123     -2.35273    2.00000
  124     -2.30530    2.00000
  125     -2.27252    2.00000
  126     -2.21780    2.00000
  127     -2.20497    2.00000
  128     -2.16855    2.00000
  129     -2.15277    2.00000
  130     -2.14101    2.00000
  131     -2.12999    2.00000
  132     -2.11581    2.00000
  133     -2.10300    2.00000
  134     -2.06721    2.00000
  135     -2.01282    2.00000
  136     -1.97005    2.00000
  137     -1.93040    2.00000
  138     -1.87055    2.00000
  139     -1.86046    2.00000
  140     -1.82841    2.00000
  141     -1.80437    2.00000
  142     -1.75187    2.00000
  143     -1.71335    2.00000
  144      0.92725    1.99910
  145      0.93918    1.99899
  146      0.95967    1.99876
  147      0.99845    1.99817
  148      1.01321    1.99788
  149      1.02016    1.99773
  150      1.05665    1.99673
  151      1.08326    1.99573
  152      1.09817    1.99505
  153      1.11527    1.99413
  154      1.12663    1.99342
  155      1.14877    1.99180
  156      1.15366    1.99139
  157      1.17389    1.98947
  158      1.18170    1.98862
  159      1.20629    1.98547
  160      1.23794    1.98012
  161      1.26562    1.97386
  162      1.27516    1.97128
  163      1.28504    1.96835
  164      1.30477    1.96158
  165      1.30859    1.96011
  166      1.31827    1.95614
  167      1.33162    1.95004
  168      1.35425    1.93774
  169      1.35927    1.93464
  170      1.36766    1.92913
  171      1.37356    1.92498
  172      1.37764    1.92197
  173      1.38555    1.91583
  174      1.40072    1.90270
  175      1.41208    1.89163
  176      1.43283    1.86829
  177      1.47797    1.80065
  178      1.48465    1.78833
  179      1.49633    1.76517
  180      1.52097    1.70911
  181      1.53364    1.67617
  182      1.55675    1.60849
  183      1.56180    1.59232
  184      1.57350    1.55305
  185      1.58860    1.49845
  186      1.62033    1.37016
  187      1.64597    1.25468
  188      1.70564    0.96206
  189      1.72133    0.88414
  190      1.74011    0.79274
  191      1.79403    0.55382
  192      1.79505    0.54978
  193      1.82106    0.45233
  194      1.85618    0.34123
  195      1.86272    0.32310
  196      1.94870    0.15081
  197      1.96627    0.12806
  198      1.98849    0.10387
  199      2.02255    0.07501
  200      2.04947    0.05782
  201      2.06279    0.05080
  202      2.07358    0.04572
  203      2.12950    0.02639
  204      2.21245    0.01160
  205      2.29862    0.00492
  206      2.34173    0.00320
  207      2.37189    0.00237
  208      2.41713    0.00151
  209      2.55961    0.00036
  210      2.57528    0.00031
  211      2.62053    0.00020
  212      2.63871    0.00016
  213      2.67509    0.00011
  214      2.70310    0.00009
  215      2.83615    0.00002
  216      2.85110    0.00002
  217      2.85874    0.00002
  218      2.93425    0.00001
  219      2.95448    0.00001
  220      3.01410    0.00000
  221      3.03816    0.00000
  222      3.10054    0.00000
  223      3.14220    0.00000
  224      5.00776    0.00000
  225      5.87521    0.00000
  226      6.26070    0.00000
  227      6.92887    0.00000
  228      7.53207    0.00000
  229      7.79853    0.00000
  230      7.86140    0.00000
  231      8.05887    0.00000
  232      8.40055    0.00000
  233      8.57801    0.00000
  234      8.67333    0.00000
  235      9.02304    0.00000
  236     10.02536    0.00000
  237     10.17327    0.00000
  238     10.20043    0.00000
  239     10.27011    0.00000
  240     10.57557    0.00000
  241     10.81651    0.00000
  242     10.95807    0.00000
  243     10.98530    0.00000
  244     11.01909    0.00000
  245     11.05584    0.00000
  246     11.13581    0.00000
  247     11.36018    0.00000
  248     11.42422    0.00000
  249     11.49559    0.00000
  250     11.68752    0.00000
  251     11.74304    0.00000
  252     11.92728    0.00000
  253     11.97787    0.00000
  254     12.03345    0.00000
  255     12.13159    0.00000
  256     12.16488    0.00000
  257     12.24374    0.00000
  258     12.36070    0.00000
  259     12.44264    0.00000
  260     12.49141    0.00000
  261     12.50917    0.00000
  262     12.63596    0.00000
  263     12.65811    0.00000
  264     12.67582    0.00000
  265     12.68949    0.00000
  266     12.74894    0.00000
  267     12.78944    0.00000
  268     12.81078    0.00000
  269     12.91036    0.00000
  270     12.95921    0.00000
  271     13.11306    0.00000
  272     13.16920    0.00000
  273     13.19918    0.00000
  274     13.37569    0.00000
  275     13.42445    0.00000
  276     13.46340    0.00000
  277     13.47778    0.00000
  278     13.54306    0.00000
  279     13.59666    0.00000
  280     13.79807    0.00000
  281     14.17473    0.00000
  282     14.23451    0.00000
  283     14.34451    0.00000
  284     14.51168    0.00000
  285     14.53979    0.00000
  286     14.59081    0.00000
  287     14.66332    0.00000

Timing:                              incl.     excl.
-----------------------------------------------------------
Hamiltonian:                         6.937     0.000   0.0% |
 Atomic:                             2.897     0.005   0.0% |
  XC Correction:                     2.891     2.891   0.1% |
 Calculate atomic Hamiltonians:      0.048     0.048   0.0% |
 Communicate:                        0.000     0.000   0.0% |
 Hartree integrate/restrict:         0.034     0.034   0.0% |
 Initialize Hamiltonian:             0.001     0.001   0.0% |
 Poisson:                            3.099     3.099   0.1% |
 XC 3D grid:                         0.851     0.851   0.0% |
 vbar:                               0.007     0.007   0.0% |
LCAO initialization:                31.120     0.323   0.0% |
 LCAO eigensolver:                   2.967     0.000   0.0% |
  Calculate projections:             0.023     0.023   0.0% |
  DenseAtomicCorrection:             0.042     0.042   0.0% |
  Distribute overlap matrix:         0.000     0.000   0.0% |
  Orbital Layouts:                   0.090     0.090   0.0% |
  Potential matrix:                  2.811     2.811   0.1% |
 LCAO to grid:                      26.379    26.379   0.5% |
 Set positions (LCAO WFS):           1.451     0.000   0.0% |
  Basic WFS set positions:           0.002     0.002   0.0% |
  Basis functions set positions:     0.000     0.000   0.0% |
  TCI: Calculate S, T, P:            1.449     1.449   0.0% |
SCF-cycle:                        5321.862     0.112   0.0% |
 Davidson:                        4592.239   751.364  14.0% |-----|
  Apply hamiltonian:               105.923   105.923   2.0% ||
  Subspace diag:                  1329.020     0.030   0.0% |
   calc_h_matrix:                  516.241   409.956   7.6% |--|
    Apply hamiltonian:             106.285   106.285   2.0% ||
   diagonalize:                      3.346     3.346   0.1% |
   rotate_psi:                     809.403   809.403  15.1% |-----|
  calc. matrices:                 1580.313  1474.208  27.5% |----------|
   Apply hamiltonian:              106.105   106.105   2.0% ||
  diagonalize:                      15.041    15.041   0.3% |
  rotate_psi:                      810.578   810.578  15.1% |-----|
 Density:                           17.300     0.004   0.0% |
  Atomic density matrices:           0.847     0.847   0.0% |
  Mix:                               7.776     7.776   0.1% |
  Multipole moments:                 0.166     0.166   0.0% |
  Pseudo density:                    8.507     8.504   0.2% |
   Symmetrize density:               0.003     0.003   0.0% |
 Hamiltonian:                      704.684     0.020   0.0% |
  Atomic:                          345.704     0.727   0.0% |
   XC Correction:                  344.976   344.976   6.4% |--|
  Calculate atomic Hamiltonians:     4.714     4.714   0.1% |
  Communicate:                       0.001     0.001   0.0% |
  Hartree integrate/restrict:        2.730     2.730   0.1% |
  Poisson:                         253.213   253.213   4.7% |-|
  XC 3D grid:                       97.378    97.378   1.8% ||
  vbar:                              0.924     0.924   0.0% |
 Orthonormalize:                     7.527     0.000   0.0% |
  calc_s_matrix:                     1.827     1.827   0.0% |
  inverse-cholesky:                  0.005     0.005   0.0% |
  projections:                       2.287     2.287   0.0% |
  rotate_psi_s:                      3.408     3.408   0.1% |
Set symmetry:                        0.001     0.001   0.0% |
Other:                               1.540     1.540   0.0% |
-----------------------------------------------------------
Total:                                      5361.459 100.0%

Memory usage: 1.07 GiB
Date: Thu Mar 28 20:01:12 2019
