
  ___ ___ ___ _ _ _  
 |   |   |_  | | | | 
 | | | | | . | | | | 
 |__ |  _|___|_____|  1.4.0
 |___|_|             

User:   murakami@tssm1.eng.shizuoka.ac.jp
Date:   Thu Mar 28 00:14:11 2019
Arch:   x86_64
Pid:    31289
Python: 3.6.5
gpaw:   /home/murakami/.local/lib/python3.6/site-packages/gpaw
_gpaw:  /home/murakami/.local/lib/python3.6/site-packages/
        _gpaw.cpython-36m-x86_64-linux-gnu.so
ase:    /home/murakami/.local/lib/python3.6/site-packages/ase (version 3.16.2)
numpy:  /home/murakami/.local/lib/python3.6/site-packages/numpy (version 1.15.2)
scipy:  /home/murakami/.local/lib/python3.6/site-packages/scipy (version 1.1.0)
units:  Angstrom and eV
cores:  1

Input parameters:
  kpts: {size: (1, 1, 1)}
  maxiter: 300
  xc: PBE

System changes: positions, numbers, cell, pbc, initial_charges, initial_magmoms 

Initialize ...

Fe-setup:
  name: Iron
  id: 37abbd8d6c3c35915a9b583b742da910
  Z: 26
  valence: 8
  core: 18
  charge: 0.0
  file: /home/murakami/Public/gpaw-setups-0.9.20000/Fe.PBE.gz
  cutoffs: 1.06(comp), 2.06(filt), 2.67(core), lmax=2
  valence states:
                energy  radius
    4s(2.00)    -5.291   1.164
    4p(0.00)    -1.326   1.058
    3d(6.00)    -7.505   1.058
    *s          21.920   1.164
    *p          25.885   1.058
    *d          19.706   1.058

  Using partial waves for Fe as LCAO basis

O-setup:
  name: Oxygen
  id: 32ecd46bf208036f09c70b0ec9a88b78
  Z: 8
  valence: 6
  core: 2
  charge: 0.0
  file: /home/murakami/Public/gpaw-setups-0.9.20000/O.PBE.gz
  cutoffs: 0.67(comp), 1.17(filt), 0.83(core), lmax=2
  valence states:
                energy  radius
    2s(2.00)   -23.961   0.688
    2p(4.00)    -9.029   0.598
    *s           3.251   0.688
    *p          18.182   0.598
    *d           0.000   0.619

  Using partial waves for O as LCAO basis

F-setup:
  name: Fluorine
  id: 9cd46ba2a61e170ad72278be75b55cc0
  Z: 9
  valence: 7
  core: 2
  charge: 0.0
  file: /home/murakami/Public/gpaw-setups-0.9.20000/F.PBE.gz
  cutoffs: 0.64(comp), 1.14(filt), 0.74(core), lmax=2
  valence states:
                energy  radius
    2s(2.00)   -29.898   0.635
    2p(5.00)   -11.110   0.635
    *s          -2.687   0.635
    *p          16.102   0.635
    *d           0.000   0.635

  Using partial waves for F as LCAO basis

Reference energy: -648925.267931

Spin-paired calculation

Occupation numbers:
  Fermi-Dirac: width=0.1000 eV

Convergence criteria:
  Maximum total energy change: 0.0005 eV / electron
  Maximum integral of absolute density change: 0.0001 electrons
  Maximum integral of absolute eigenstate change: 4e-08 eV^2
  Maximum number of iterations: 300

Symmetries present (total): 1

  ( 1  0  0)
  ( 0  1  0)
  ( 0  0  1)

1 k-point (Gamma)
1 k-point in the irreducible part of the Brillouin zone
       k-points in crystal coordinates                weights
   0:     0.00000000    0.00000000    0.00000000          1/1

Wave functions: Uniform real-space grid
  Kinetic energy operator: 8*3+1=25 point O(h^6) finite-difference Laplacian
  ScaLapack parameters: grid=1x1, blocksize=None 

Eigensolver
   Davidson(niter=1, smin=None, normalize=True) 

Densities:
  Coarse grid: 48*28*76 grid
  Fine grid: 96*56*152 grid
  Total Charge: 0.000000 

Density mixing:
  Method: separate
  Backend: pulay
  Linear mixing parameter: 0.05
  Mixing with 5 old densities
  Damping of long wave oscillations: 50 

Hamiltonian:
  XC and Coulomb potentials evaluated on a 96*56*152 grid
  Using the PBE Exchange-Correlation functional
  Interpolation: tri-quintic (5. degree polynomial)
  Poisson solver: Jacobi solver with 4 multi-grid levels
    Coarsest grid: 12 x 7 x 19 points
    Stencil: 8*3+1=25 point O(h^6) finite-difference Laplacian
    Max iterations: 1000
    Tolerance: 2.000000e-10 

Memory estimate:
  Process memory now: 1099.93 MiB
  Calculator: 625.81 MiB
    Density: 116.13 MiB
      Arrays: 20.26 MiB
      Localized functions: 88.08 MiB
      Mixer: 7.79 MiB
    Hamiltonian: 35.03 MiB
      Arrays: 13.25 MiB
      XC: 0.00 MiB
      Poisson: 15.10 MiB
      vbar: 6.68 MiB
    Wavefunctions: 474.64 MiB
      Arrays psit_nG: 224.44 MiB
      Eigensolver: 234.67 MiB
      Projections: 1.66 MiB
      Projectors: 13.87 MiB

Total number of cores used: 1

Number of atoms: 52
Number of atomic orbitals: 288
Number of bands in calculation: 288
Bands to converge: occupied states only
Number of valence electrons: 376

... initialized

Initializing position-dependent things.

Density initialized from atomic densities
Creating initial wave functions:
  288 bands from LCAO basis set

                                           
                                           
                                           
                                           
                          Fe               
              F       F                    
             Fe              O             
               O        F       F          
                             Fe            
         F       F        F                
               Fe                          
            FFe    F       F               
              F        F     F             
         F     F       Fe                  
                        F   Fe             
             Fe  O        F     F          
               Fe Fe                       
            F      F   Fe  O               
              F       F     Fe             
                          Fe               
         F   FeF        F                  
                         F                 
          F     F Fe                       
            F             F                
                    F       Fe             
                                           
                                           
                                           
                                           
                                           

Positions:
   0 Fe     1.542848    2.593853    2.677597    ( 0.0000,  0.0000,  0.0000)
   1 Fe     1.542848    2.765614   10.155423    ( 0.0000,  0.0000,  0.0000)
   2 Fe     6.243444    5.273587    2.635533    ( 0.0000,  0.0000,  0.0000)
   3 Fe     6.243444    0.085880   10.113358    ( 0.0000,  0.0000,  0.0000)
   4 Fe     1.648330    2.534235   14.537576    ( 0.0000,  0.0000,  0.0000)
   5 Fe     1.648330    2.825232    7.052288    ( 0.0000,  0.0000,  0.0000)
   6 Fe     6.348925    5.213968   14.495512    ( 0.0000,  0.0000,  0.0000)
   7 Fe     6.348925    0.145499    7.017686    ( 0.0000,  0.0000,  0.0000)
   8 Fe     3.117708    0.157643   12.271643    ( 0.0000,  0.0000,  0.0000)
   9 Fe     3.117708    5.201824    4.793817    ( 0.0000,  0.0000,  0.0000)
  10 Fe     7.890984    2.837377   12.228928    ( 0.0000,  0.0000,  0.0000)
  11 Fe     7.818303    2.522090    4.751753    ( 0.0000,  0.0000,  0.0000)
  12 Fe     3.136416    0.023153    7.705724    ( 0.0000,  0.0000,  0.0000)
  13 Fe     3.136416    5.336314    0.227899    ( 0.0000,  0.0000,  0.0000)
  14 Fe     7.837011    2.702886    7.663660    ( 0.0000,  0.0000,  0.0000)
  15 Fe     7.837011    2.656581    0.185834    ( 0.0000,  0.0000,  0.0000)
  16 O      2.907450    1.433164   13.814659    ( 0.0000,  0.0000,  0.0000)
  17 O      2.907450    3.926303    6.336834    ( 0.0000,  0.0000,  0.0000)
  18 O      7.608045    4.112898   13.772595    ( 0.0000,  0.0000,  0.0000)
  19 O      7.608045    1.246569    6.294769    ( 0.0000,  0.0000,  0.0000)
  20 F      0.036298    1.976797    3.667309    ( 0.0000,  0.0000,  0.0000)
  21 F      0.036298    3.382670   11.125917    ( 0.0000,  0.0000,  0.0000)
  22 F      4.736893    4.656530    3.606027    ( 0.0000,  0.0000,  0.0000)
  23 F      4.736893    0.702937   11.051488    ( 0.0000,  0.0000,  0.0000)
  24 F      0.243622    2.119010    8.659520    ( 0.0000,  0.0000,  0.0000)
  25 F      0.243622    3.201188    1.181694    ( 0.0000,  0.0000,  0.0000)
  26 F      4.944218    4.798743    8.617455    ( 0.0000,  0.0000,  0.0000)
  27 F      4.944218    0.537158    1.139630    ( 0.0000,  0.0000,  0.0000)
  28 F      1.655719    1.147837    1.234055    ( 0.0000,  0.0000,  0.0000)
  29 F      1.655719    4.211630    8.711881    ( 0.0000,  0.0000,  0.0000)
  30 F      6.356314    3.827571    1.191991    ( 0.0000,  0.0000,  0.0000)
  31 F      6.356314    1.531896    8.669816    ( 0.0000,  0.0000,  0.0000)
  32 F      1.706072    1.090357   11.174790    ( 0.0000,  0.0000,  0.0000)
  33 F      1.706072    4.269110    3.565923    ( 0.0000,  0.0000,  0.0000)
  34 F      6.406667    3.770090   11.001684    ( 0.0000,  0.0000,  0.0000)
  35 F      6.406667    1.589377    3.523859    ( 0.0000,  0.0000,  0.0000)
  36 F      1.776853    1.081862    6.320255    ( 0.0000,  0.0000,  0.0000)
  37 F      1.776853    4.277605   13.798081    ( 0.0000,  0.0000,  0.0000)
  38 F      6.477449    3.761596    6.278191    ( 0.0000,  0.0000,  0.0000)
  39 F      6.477449    1.597871   13.756016    ( 0.0000,  0.0000,  0.0000)
  40 F      2.759033    1.859028    8.623789    ( 0.0000,  0.0000,  0.0000)
  41 F      2.759033    3.500439    1.145964    ( 0.0000,  0.0000,  0.0000)
  42 F      7.459629    4.538761    8.581725    ( 0.0000,  0.0000,  0.0000)
  43 F      7.459629    0.820706    1.172127    ( 0.0000,  0.0000,  0.0000)
  44 F      2.797061    1.637912    3.684255    ( 0.0000,  0.0000,  0.0000)
  45 F      2.849557    3.721555   11.161611    ( 0.0000,  0.0000,  0.0000)
  46 F      7.550153    4.317646    3.641721    ( 0.0000,  0.0000,  0.0000)
  47 F      7.550153    1.017457   11.119547    ( 0.0000,  0.0000,  0.0000)
  48 F      4.613296    0.721642    6.284284    ( 0.0000,  0.0000,  0.0000)
  49 F      4.613296    4.637825   13.762110    ( 0.0000,  0.0000,  0.0000)
  50 F      9.313892    3.401375    6.242220    ( 0.0000,  0.0000,  0.0000)
  51 F      9.313892    1.958092   13.720045    ( 0.0000,  0.0000,  0.0000)

Unit cell:
           periodic     x           y           z      points  spacing
  1. axis:    yes    9.401191    0.000000   -0.084129    48     0.1959
  2. axis:    yes    0.000000    5.359467    0.000000    28     0.1914
  3. axis:    yes    0.000000    0.000000   14.955651    76     0.1968

  Lengths:   9.401567   5.359467  14.955651
  Angles:   90.000000  90.512712  90.000000

Effective grid spacing dv^(1/3) = 0.1947

                     log10-error:    total        iterations:
           time      wfs    density  energy       fermi  poisson
iter:   1  00:15:12  +1.49   +inf  -311.605709    3      18     
iter:   2  00:15:39  +0.30   +inf  -313.178363    3             
iter:   3  00:16:07  -0.29   +inf  -313.608305    2             
iter:   4  00:16:39  -0.46  -1.13  -310.655768    3      13     
iter:   5  00:17:13  -0.45  -1.16  -324.953175    3      25     
iter:   6  00:17:53  -0.11  -1.11  -316.249963    37     31     
iter:   7  00:18:36  -0.27  -1.29  -315.378717    3      34     
iter:   8  00:19:18  -0.69  -1.26  -305.162792    4      32     
iter:   9  00:19:56  -1.03  -1.36  -303.854077    3      26     
iter:  10  00:20:29  -1.33  -1.39  -300.648978    3      17     
iter:  11  00:21:04  -1.75  -1.44  -300.875817    4      19     
iter:  12  00:21:38  -1.52  -1.46  -304.620589    4      28     
iter:  13  00:22:14  -1.35  -1.39  -314.657799    3      33     
iter:  14  00:22:49  -1.20  -1.29  -304.308727    3      32     
iter:  15  00:23:23  -1.37  -1.42  -301.878334    3      29     
iter:  16  00:23:58  -1.29  -1.50  -302.289703    3      27     
iter:  17  00:24:33  -1.46  -1.46  -300.873654    3      22     
iter:  18  00:25:06  -1.82  -1.54  -300.298478    3      22     
iter:  19  00:25:39  -2.17  -1.55  -299.867205    3      20     
iter:  20  00:26:12  -2.47  -1.58  -300.002744    3      21     
iter:  21  00:26:46  -2.15  -1.58  -300.824763    3      26     
iter:  22  00:27:21  -1.84  -1.55  -302.686665    3      28     
iter:  23  00:27:56  -1.59  -1.52  -301.312565    4      27     
iter:  24  00:28:36  -1.44  -1.61  -301.685342    4      19     
iter:  25  00:29:17  -1.35  -1.61  -304.394485    2      27     
iter:  26  00:29:55  -1.38  -1.51  -302.710625    3      27     
iter:  27  00:30:29  -1.78  -1.56  -300.967451    3      28     
iter:  28  00:31:05  -2.14  -1.64  -299.809769    3      24     
iter:  29  00:31:37  -2.54  -1.72  -299.898245    3      17     
iter:  30  00:32:10  -2.45  -1.73  -299.896975    3      19     
iter:  31  00:32:46  -2.13  -1.73  -301.511531    3      23     
iter:  32  00:33:20  -1.52  -1.68  -307.584141    4      28     
iter:  33  00:33:56  -1.44  -1.52  -301.440246    3      30     
iter:  34  00:34:30  -1.42  -1.73  -303.498915    3      28     
iter:  35  00:35:04  -1.52  -1.63  -302.315178    3      28     
iter:  36  00:35:38  -1.89  -1.70  -299.969286    3      26     
iter:  37  00:36:10  -2.60  -1.87  -299.801896    3      13     
iter:  38  00:36:43  -2.31  -1.92  -301.398257    3      24     
iter:  39  00:37:20  -1.80  -1.73  -303.720505    3      30     
iter:  40  00:37:55  -1.74  -1.61  -300.237870    4      27     
iter:  41  00:38:34  -2.25  -1.88  -299.916677    2      19     
iter:  42  00:39:07  -2.42  -1.93  -300.409787    3      22     
iter:  43  00:39:42  -2.43  -1.87  -299.781035    3      22     
iter:  44  00:40:16  -2.36  -1.98  -301.235082    3      24     
iter:  45  00:40:50  -1.87  -1.77  -303.557603    3      29     
iter:  46  00:41:24  -1.85  -1.62  -299.849295    4      28     
iter:  47  00:41:57  -2.57  -1.98  -299.864896    2      11     
iter:  48  00:42:33  -2.34  -1.99  -300.221754    3      20     
iter:  49  00:43:10  -2.08  -2.01  -300.476654    3      23     
iter:  50  00:43:48  -2.08  -1.91  -300.974184    3      22     
iter:  51  00:44:25  -1.95  -1.83  -301.639637    3      28     
iter:  52  00:44:59  -1.97  -1.79  -300.102549    3      26     
iter:  53  00:45:34  -2.40  -2.01  -299.778261    3      19     
iter:  54  00:46:10  -2.52  -2.13  -300.281737    3      22     
iter:  55  00:46:43  -2.48  -2.01  -299.830053    3      23     
iter:  56  00:47:17  -2.70  -2.12  -299.982880    2      20     
iter:  57  00:47:50  -2.31  -2.05  -301.170456    3      26     
iter:  58  00:48:24  -2.17  -1.83  -299.785936    3      25     
iter:  59  00:48:56  -2.83  -2.16  -299.768271    3      13     
iter:  60  00:49:30  -3.03  -2.18  -299.835158    3      17     
iter:  61  00:50:04  -2.98  -2.15  -299.860662    2      21     
iter:  62  00:50:39  -2.71  -2.14  -300.019563    2      21     
iter:  63  00:51:14  -2.38  -2.06  -300.717597    3      26     
iter:  64  00:51:48  -2.29  -1.90  -299.787017    3      24     
iter:  65  00:52:22  -2.90  -2.19  -299.764950    2      13     
iter:  66  00:52:55  -3.15  -2.22  -299.758113    2      13     
iter:  67  00:53:30  -3.06  -2.23  -299.958994    3      21     
iter:  68  00:54:04  -2.62  -2.11  -300.103173    2      22     
iter:  69  00:54:39  -2.40  -2.04  -300.478929    3      26     
iter:  70  00:55:13  -2.37  -1.95  -299.793505    3      23     
iter:  71  00:55:47  -2.97  -2.22  -299.748773    2      14     
iter:  72  00:56:20  -3.10  -2.27  -299.781982    2      13     
iter:  73  00:56:55  -2.91  -2.24  -300.052878    3      21     
iter:  74  00:57:29  -2.55  -2.10  -300.138551    2      23     
iter:  75  00:58:05  -2.41  -2.05  -300.334169    3      26     
iter:  76  00:58:39  -2.43  -1.99  -299.822577    3      23     
iter:  77  00:59:13  -2.86  -2.24  -299.823145    2      16     
iter:  78  00:59:47  -2.79  -2.25  -299.896204    2      16     
iter:  79  01:00:22  -2.64  -2.20  -300.276328    3      23     
iter:  80  01:00:56  -2.42  -2.06  -300.250712    2      23     
iter:  81  01:01:32  -2.34  -2.02  -300.398257    3      26     
iter:  82  01:02:06  -2.32  -1.98  -300.137313    3      24     
iter:  83  01:02:41  -2.46  -2.14  -300.121168    2      20     
iter:  84  01:03:15  -2.35  -2.18  -300.364355    3      20     
iter:  85  01:03:50  -2.24  -2.09  -301.013160    3      25     
iter:  86  01:04:25  -2.08  -1.96  -301.074886    3      25     
iter:  87  01:05:00  -2.02  -1.86  -301.497993    3      28     
iter:  88  01:05:35  -1.98  -1.80  -301.520741    3      26     
iter:  89  01:06:10  -2.00  -1.94  -301.231108    3      24     
iter:  90  01:06:45  -1.87  -2.04  -302.041442    3      25     
iter:  91  01:07:20  -1.80  -1.92  -303.078174    3      28     
iter:  92  01:07:56  -1.67  -1.82  -304.034905    3      28     
iter:  93  01:08:35  -1.62  -1.65  -304.984030    3      31     
iter:  94  01:09:22  -1.63  -1.60  -303.522250    4      29     
iter:  95  01:10:10  -1.71  -1.81  -303.053363    3      27     
iter:  96  01:11:00  -1.53  -1.93  -304.753741    3      28     
iter:  97  01:11:46  -1.49  -1.77  -306.405910    3      30     
iter:  98  01:12:33  -1.41  -1.70  -306.188800    3      29     
iter:  99  01:13:15  -1.47  -1.59  -306.091732    3      31     
iter: 100  01:13:57  -1.51  -1.57  -305.575656    3      30     
iter: 101  01:14:32  -1.51  -1.68  -304.537749    3      28     
iter: 102  01:15:07  -1.35  -1.84  -307.292984    3      29     
iter: 103  01:15:41  -1.36  -1.70  -307.152592    3      31     
iter: 104  01:16:17  -1.32  -1.68  -308.236754    3      29     
iter: 105  01:16:52  -1.36  -1.54  -308.647633    3      32     
iter: 106  01:17:26  -1.38  -1.52  -307.066384    3      30     
iter: 107  01:18:02  -1.39  -1.60  -305.179599    4      28     
iter: 108  01:18:38  -1.29  -1.77  -308.191301    3      29     
iter: 109  01:19:12  -1.27  -1.68  -309.716635    2      32     
iter: 110  01:19:46  -1.20  -1.64  -310.099231    3      29     
iter: 111  01:20:20  -1.30  -1.52  -307.919530    3      32     
iter: 112  01:20:55  -1.37  -1.53  -307.545504    2      31     
iter: 113  01:21:30  -1.34  -1.57  -305.485096    3      28     
iter: 114  01:22:10  -1.24  -1.73  -309.222378    3      29     
iter: 115  01:22:53  -1.21  -1.66  -309.723075    3      32     
iter: 116  01:23:35  -1.20  -1.61  -310.441682    3      29     
iter: 117  01:24:10  -1.26  -1.52  -310.136623    3      32     
iter: 118  01:24:44  -1.29  -1.50  -308.880243    2      31     
iter: 119  01:25:19  -1.29  -1.54  -305.652534    3      28     
iter: 120  01:25:53  -1.19  -1.72  -309.608914    3      29     
iter: 121  01:26:28  -1.18  -1.64  -310.757294    3      32     
iter: 122  01:27:02  -1.15  -1.59  -312.332584    3      30     
iter: 123  01:27:36  -1.19  -1.51  -310.523760    3      33     
iter: 124  01:28:12  -1.27  -1.49  -308.896256    3      31     
iter: 125  01:28:48  -1.28  -1.53  -306.527212    3      28     
iter: 126  01:29:22  -1.13  -1.71  -310.293231    2      29     
iter: 127  01:29:56  -1.16  -1.62  -309.762796    3      32     
iter: 128  01:30:30  -1.16  -1.59  -311.353499    3      29     
iter: 129  01:31:05  -1.19  -1.53  -312.134316    3      33     
iter: 130  01:31:39  -1.23  -1.47  -310.113034    3      32     
iter: 131  01:32:15  -1.25  -1.51  -306.582180    3      29     
iter: 132  01:32:51  -1.12  -1.71  -310.457968    3      29     
iter: 133  01:33:32  -1.16  -1.59  -309.747585    2      32     
iter: 134  01:34:06  -1.12  -1.60  -312.535469    3      29     
iter: 135  01:34:42  -1.16  -1.52  -311.780534    3      33     
iter: 136  01:35:16  -1.25  -1.47  -308.951688    2      32     
iter: 137  01:35:52  -1.26  -1.54  -307.895783    3      29     
iter: 138  01:36:27  -1.09  -1.68  -311.053760    3      29     
iter: 139  01:37:06  -1.17  -1.56  -309.228852    2      32     
iter: 140  01:37:42  -1.12  -1.60  -311.480844    3      28     
iter: 141  01:38:22  -1.18  -1.54  -311.989729    3      32     
iter: 142  01:39:00  -1.24  -1.47  -310.561649    3      32     
iter: 143  01:39:34  -1.21  -1.54  -308.287036    3      30     
iter: 144  01:40:08  -1.09  -1.64  -311.980271    3      30     
iter: 145  01:40:42  -1.17  -1.52  -309.122853    3      32     
iter: 146  01:41:17  -1.08  -1.60  -312.919866    3      28     
iter: 147  01:41:53  -1.15  -1.52  -311.827157    3      32     
iter: 148  01:42:27  -1.23  -1.48  -310.568948    3      32     
iter: 149  01:43:03  -1.19  -1.55  -310.062330    3      31     
iter: 150  01:43:38  -1.06  -1.59  -314.554342    3      31     
iter: 151  01:44:13  -1.12  -1.48  -309.199979    3      33     
iter: 152  01:44:48  -1.06  -1.59  -312.732941    3      28     
iter: 153  01:45:24  -1.15  -1.51  -311.414912    3      32     
iter: 154  01:45:59  -1.21  -1.50  -312.881123    3      32     
iter: 155  01:46:35  -1.11  -1.53  -311.825532    2      31     
iter: 156  01:47:10  -1.07  -1.54  -313.958386    3      31     
iter: 157  01:47:46  -1.13  -1.48  -309.370251    3      33     
iter: 158  01:48:21  -1.03  -1.58  -313.457849    3      28     
iter: 159  01:48:57  -1.13  -1.50  -312.061337    3      32     
iter: 160  01:49:32  -1.17  -1.51  -312.119188    2      32     
iter: 161  01:50:07  -1.13  -1.53  -312.507899    3      32     
iter: 162  01:50:42  -1.08  -1.53  -314.174765    3      31     
iter: 163  01:51:18  -1.12  -1.48  -309.021332    3      33     
iter: 164  01:51:53  -1.03  -1.59  -312.765222    3      28     
iter: 165  01:52:29  -1.15  -1.49  -311.707657    3      32     
iter: 166  01:53:04  -1.17  -1.52  -312.609697    2      32     
iter: 167  01:53:40  -1.12  -1.53  -312.614184    3      32     
iter: 168  01:54:15  -1.10  -1.53  -313.371609    3      31     
iter: 169  01:54:51  -1.14  -1.48  -309.225725    3      33     
iter: 170  01:55:26  -1.03  -1.58  -312.608559    3      28     
iter: 171  01:56:02  -1.15  -1.49  -311.831636    3      32     
iter: 172  01:56:37  -1.17  -1.53  -312.152234    3      32     
iter: 173  01:57:13  -1.13  -1.53  -312.801488    3      32     
iter: 174  01:57:49  -1.10  -1.52  -313.529527    3      31     
iter: 175  01:58:24  -1.13  -1.48  -309.182797    3      33     
iter: 176  01:58:59  -1.03  -1.58  -312.534320    3      28     
iter: 177  01:59:35  -1.15  -1.49  -311.469719    3      32     
iter: 178  02:00:11  -1.17  -1.53  -312.525320    3      32     
iter: 179  02:00:47  -1.13  -1.53  -312.769053    3      32     
iter: 180  02:01:23  -1.10  -1.52  -313.182338    3      31     
iter: 181  02:01:58  -1.14  -1.48  -309.267967    3      33     
iter: 182  02:02:34  -1.03  -1.58  -312.438152    3      28     
iter: 183  02:03:09  -1.16  -1.49  -311.563805    3      32     
iter: 184  02:03:45  -1.17  -1.53  -312.270282    3      32     
iter: 185  02:04:23  -1.13  -1.53  -312.782551    3      32     
iter: 186  02:05:00  -1.10  -1.52  -313.249516    3      31     
iter: 187  02:05:49  -1.14  -1.48  -309.231614    3      33     
iter: 188  02:06:40  -1.03  -1.58  -312.452098    2      28     
iter: 189  02:07:17  -1.16  -1.49  -311.359484    3      32     
iter: 190  02:07:54  -1.17  -1.53  -312.480868    3      32     
iter: 191  02:08:30  -1.13  -1.52  -312.679641    3      32     
iter: 192  02:09:15  -1.11  -1.52  -313.072859    3      31     
iter: 193  02:10:00  -1.14  -1.48  -309.282628    3      33     
iter: 194  02:10:40  -1.03  -1.58  -312.361621    3      28     
iter: 195  02:11:15  -1.16  -1.49  -311.473145    3      32     
iter: 196  02:11:50  -1.16  -1.53  -312.336687    3      32     
iter: 197  02:12:26  -1.13  -1.52  -312.652761    3      32     
iter: 198  02:13:02  -1.11  -1.52  -313.087584    3      31     
iter: 199  02:13:37  -1.14  -1.48  -309.256764    3      33     
iter: 200  02:14:14  -1.03  -1.58  -312.384420    3      28     
iter: 201  02:14:58  -1.16  -1.48  -311.388178    3      32     
iter: 202  02:15:46  -1.16  -1.53  -312.461159    3      32     
iter: 203  02:16:48  -1.13  -1.52  -312.551307    3      32     
iter: 204  02:17:39  -1.11  -1.52  -312.990058    3      31     
iter: 205  02:18:26  -1.14  -1.49  -309.295766    3      33     
iter: 206  02:19:12  -1.03  -1.57  -312.314083    3      28     
iter: 207  02:19:47  -1.16  -1.48  -311.485115    3      32     
iter: 208  02:20:32  -1.16  -1.53  -312.380020    3      32     
iter: 209  02:21:23  -1.13  -1.52  -312.522343    3      32     
iter: 210  02:22:13  -1.11  -1.52  -312.986590    3      31     
iter: 211  02:23:08  -1.14  -1.49  -309.277799    3      33     
iter: 212  02:23:48  -1.03  -1.57  -312.329546    3      28     
iter: 213  02:24:24  -1.16  -1.48  -311.456952    3      32     
iter: 214  02:25:01  -1.16  -1.53  -312.455560    3      32     
iter: 215  02:25:41  -1.13  -1.52  -312.442926    3      32     
iter: 216  02:26:23  -1.11  -1.52  -312.926498    3      31     
iter: 217  02:27:12  -1.14  -1.49  -309.306363    3      33     
iter: 218  02:27:59  -1.03  -1.57  -312.281126    3      28     
iter: 219  02:28:36  -1.16  -1.48  -311.526344    3      32     
iter: 220  02:29:13  -1.16  -1.53  -312.408902    3      32     
iter: 221  02:29:49  -1.14  -1.52  -312.418231    3      32     
iter: 222  02:30:38  -1.11  -1.52  -312.916786    3      31     
iter: 223  02:31:30  -1.14  -1.49  -309.294847    3      33     
iter: 224  02:32:07  -1.03  -1.57  -312.287989    3      28     
iter: 225  02:32:43  -1.16  -1.48  -311.521615    3      32     
iter: 226  02:33:20  -1.16  -1.53  -312.454895    3      32     
iter: 227  02:33:56  -1.13  -1.52  -312.361037    3      32     
iter: 228  02:34:33  -1.12  -1.53  -312.875408    3      31     
iter: 229  02:35:10  -1.15  -1.49  -309.314826    3      33     
iter: 230  02:35:45  -1.03  -1.57  -312.256369    3      28     
iter: 231  02:36:33  -1.16  -1.48  -311.568340    3      32     
iter: 232  02:37:25  -1.16  -1.53  -312.427974    3      32     
iter: 233  02:38:14  -1.14  -1.52  -312.340377    3      32     
iter: 234  02:38:53  -1.12  -1.53  -312.863173    3      31     
iter: 235  02:39:46  -1.15  -1.49  -309.308882    3      33     
iter: 236  02:40:36  -1.04  -1.57  -312.257172    3      28     
iter: 237  02:41:27  -1.16  -1.48  -311.572440    3      32     
iter: 238  02:42:19  -1.16  -1.53  -312.456113    3      32     
iter: 239  02:43:12  -1.14  -1.52  -312.300089    3      32     
iter: 240  02:43:54  -1.12  -1.53  -312.831949    3      31     
iter: 241  02:44:30  -1.15  -1.49  -309.323114    3      33     
iter: 242  02:45:04  -1.04  -1.57  -312.236498    3      28     
iter: 243  02:45:39  -1.16  -1.48  -311.603641    3      32     
iter: 244  02:46:13  -1.16  -1.53  -312.441250    3      32     
iter: 245  02:46:48  -1.14  -1.52  -312.282627    3      32     
iter: 246  02:47:23  -1.12  -1.53  -312.818048    3      31     
iter: 247  02:48:04  -1.15  -1.49  -309.321730    3      33     
iter: 248  02:48:46  -1.04  -1.57  -312.233722    3      28     
iter: 249  02:49:28  -1.16  -1.48  -311.610469    3      32     
iter: 250  02:50:03  -1.16  -1.53  -312.458782    3      32     
iter: 251  02:50:38  -1.14  -1.52  -312.253893    3      32     
iter: 252  02:51:12  -1.12  -1.53  -312.785917    3      30     
iter: 253  02:51:47  -1.15  -1.49  -309.332069    3      33     
iter: 254  02:52:21  -1.04  -1.57  -312.219699    3      28     
iter: 255  02:52:56  -1.16  -1.48  -311.628252    3      32     
iter: 256  02:53:30  -1.16  -1.53  -312.454602    3      32     
iter: 257  02:54:06  -1.14  -1.52  -312.236002    3      32     
iter: 258  02:54:42  -1.12  -1.53  -312.769647    3      30     
iter: 259  02:55:17  -1.15  -1.49  -309.336073    3      33     
iter: 260  02:55:51  -1.04  -1.57  -312.217100    3      29     
iter: 261  02:56:25  -1.16  -1.48  -311.638364    3      32     
iter: 262  02:56:59  -1.16  -1.53  -312.462764    3      32     
iter: 263  02:57:34  -1.14  -1.52  -312.218681    3      32     
iter: 264  02:58:09  -1.12  -1.53  -312.744607    3      30     
iter: 265  02:58:50  -1.15  -1.49  -309.347361    3      33     
iter: 266  02:59:32  -1.04  -1.57  -312.208617    3      29     
iter: 267  03:00:14  -1.16  -1.48  -311.648231    3      32     
iter: 268  03:00:49  -1.15  -1.53  -312.464985    3      32     
iter: 269  03:01:24  -1.14  -1.52  -312.201811    3      32     
iter: 270  03:02:00  -1.12  -1.53  -312.726250    3      30     
iter: 271  03:02:35  -1.15  -1.49  -309.355760    3      33     
iter: 272  03:03:09  -1.04  -1.57  -312.199778    3      29     
iter: 273  03:03:44  -1.16  -1.48  -311.655481    3      32     
iter: 274  03:04:18  -1.15  -1.53  -312.470802    3      32     
iter: 275  03:04:55  -1.14  -1.52  -312.188574    3      32     
iter: 276  03:05:30  -1.12  -1.53  -312.700558    3      30     
iter: 277  03:06:05  -1.15  -1.49  -309.368079    3      33     
iter: 278  03:06:39  -1.04  -1.56  -312.188462    3      29     
iter: 279  03:07:14  -1.16  -1.48  -311.662085    3      32     
iter: 280  03:07:48  -1.15  -1.53  -312.474726    3      32     
iter: 281  03:08:24  -1.14  -1.52  -312.174805    3      32     
iter: 282  03:09:04  -1.12  -1.53  -312.675418    3      30     
iter: 283  03:09:46  -1.15  -1.49  -309.382585    3      33     
iter: 284  03:10:28  -1.04  -1.56  -312.175182    3      29     
iter: 285  03:11:06  -1.16  -1.48  -311.665854    3      32     
iter: 286  03:11:41  -1.15  -1.53  -312.480623    3      32     
iter: 287  03:12:18  -1.14  -1.52  -312.163427    3      32     
iter: 288  03:12:52  -1.12  -1.53  -312.644152    3      30     
iter: 289  03:13:27  -1.15  -1.49  -309.401359    3      33     
iter: 290  03:14:02  -1.04  -1.56  -312.158178    3      29     
iter: 291  03:14:37  -1.16  -1.48  -311.668827    3      32     
iter: 292  03:15:12  -1.15  -1.53  -312.486016    3      32     
iter: 293  03:15:48  -1.14  -1.52  -312.151912    3      32     
iter: 294  03:16:23  -1.12  -1.53  -312.607259    3      30     
iter: 295  03:16:57  -1.15  -1.49  -309.426218    3      33     
iter: 296  03:17:31  -1.04  -1.56  -312.136356    3      29     
iter: 297  03:18:06  -1.16  -1.48  -311.668982    3      32     
iter: 298  03:18:40  -1.15  -1.53  -312.491637    3      32     
iter: 299  03:19:16  -1.14  -1.52  -312.141489    3      32     
iter: 300  03:19:56  -1.12  -1.53  -312.559216    3      30     

Did not converge!

Here are some tips:

1) Make sure the geometry and spin-state is physically sound.
2) Use less aggressive density mixing.
3) Solve the eigenvalue problem more accurately at each scf-step.
4) Use a smoother distribution function for the occupation numbers.
5) Try adding more empty states.
6) Use enough k-points.
7) Don't let your structure optimization algorithm take too large steps.
8) Solve the Poisson equation more accurately.
9) Better initial guess for the wave functions.

See details here:

    https://wiki.fysik.dtu.dk/gpaw/documentation/convergence.html


Timing:                              incl.     excl.
-----------------------------------------------------------
Hamiltonian:                         5.044     0.000   0.0% |
 Atomic:                             2.269     0.005   0.0% |
  XC Correction:                     2.265     2.265   0.0% |
 Calculate atomic Hamiltonians:      0.029     0.029   0.0% |
 Communicate:                        0.000     0.000   0.0% |
 Hartree integrate/restrict:         0.015     0.015   0.0% |
 Initialize Hamiltonian:             0.000     0.000   0.0% |
 Poisson:                            2.091     2.091   0.0% |
 XC 3D grid:                         0.634     0.634   0.0% |
 vbar:                               0.005     0.005   0.0% |
LCAO initialization:                20.578     0.228   0.0% |
 LCAO eigensolver:                   2.081     0.000   0.0% |
  Calculate projections:             0.023     0.023   0.0% |
  DenseAtomicCorrection:             0.022     0.022   0.0% |
  Distribute overlap matrix:         0.000     0.000   0.0% |
  Orbital Layouts:                   0.059     0.059   0.0% |
  Potential matrix:                  1.977     1.977   0.0% |
 LCAO to grid:                      17.107    17.107   0.2% |
 Set positions (LCAO WFS):           1.162     0.000   0.0% |
  Basic WFS set positions:           0.001     0.001   0.0% |
  Basis functions set positions:     0.000     0.000   0.0% |
  TCI: Calculate S, T, P:            1.160     1.160   0.0% |
SCF-cycle:                       11126.256     0.256   0.0% |
 Davidson:                        9070.573  1468.479  13.2% |----|
  Apply hamiltonian:               208.934   208.934   1.9% ||
  Subspace diag:                  2621.626     0.061   0.0% |
   calc_h_matrix:                 1019.589   812.929   7.3% |--|
    Apply hamiltonian:             206.660   206.660   1.9% ||
   diagonalize:                      6.386     6.386   0.1% |
   rotate_psi:                    1595.590  1595.590  14.3% |-----|
  calc. matrices:                 3140.698  2931.837  26.3% |----------|
   Apply hamiltonian:              208.861   208.861   1.9% ||
  diagonalize:                      29.528    29.528   0.3% |
  rotate_psi:                     1601.308  1601.308  14.4% |-----|
 Density:                           33.779     0.009   0.0% |
  Atomic density matrices:           1.889     1.889   0.0% |
  Mix:                              15.939    15.939   0.1% |
  Multipole moments:                 0.395     0.395   0.0% |
  Pseudo density:                   15.548    15.541   0.1% |
   Symmetrize density:               0.007     0.007   0.0% |
 Hamiltonian:                     2016.174     0.042   0.0% |
  Atomic:                          713.956     1.495   0.0% |
   XC Correction:                  712.461   712.461   6.4% |--|
  Calculate atomic Hamiltonians:    10.014    10.014   0.1% |
  Communicate:                       0.003     0.003   0.0% |
  Hartree integrate/restrict:        5.713     5.713   0.1% |
  Poisson:                        1083.669  1083.669   9.7% |---|
  XC 3D grid:                      200.820   200.820   1.8% ||
  vbar:                              1.958     1.958   0.0% |
 Orthonormalize:                     5.474     0.000   0.0% |
  calc_s_matrix:                     1.573     1.573   0.0% |
  inverse-cholesky:                  0.004     0.004   0.0% |
  projections:                       1.285     1.285   0.0% |
  rotate_psi_s:                      2.611     2.611   0.0% |
Set symmetry:                        0.001     0.001   0.0% |
Other:                               1.264     1.264   0.0% |
-----------------------------------------------------------
Total:                                     11153.142 100.0%

Memory usage: 1.07 GiB
Date: Thu Mar 28 03:20:05 2019
