
  ___ ___ ___ _ _ _  
 |   |   |_  | | | | 
 | | | | | . | | | | 
 |__ |  _|___|_____|  1.4.0
 |___|_|             

User:   murakami@tssm1.eng.shizuoka.ac.jp
Date:   Fri Mar 29 01:56:49 2019
Arch:   x86_64
Pid:    31289
Python: 3.6.5
gpaw:   /home/murakami/.local/lib/python3.6/site-packages/gpaw
_gpaw:  /home/murakami/.local/lib/python3.6/site-packages/
        _gpaw.cpython-36m-x86_64-linux-gnu.so
ase:    /home/murakami/.local/lib/python3.6/site-packages/ase (version 3.16.2)
numpy:  /home/murakami/.local/lib/python3.6/site-packages/numpy (version 1.15.2)
scipy:  /home/murakami/.local/lib/python3.6/site-packages/scipy (version 1.1.0)
units:  Angstrom and eV
cores:  1

Input parameters:
  kpts: {size: (1, 1, 1)}
  maxiter: 300
  xc: PBE

System changes: positions, numbers, cell, pbc, initial_charges, initial_magmoms 

Initialize ...

Fe-setup:
  name: Iron
  id: 37abbd8d6c3c35915a9b583b742da910
  Z: 26
  valence: 8
  core: 18
  charge: 0.0
  file: /home/murakami/Public/gpaw-setups-0.9.20000/Fe.PBE.gz
  cutoffs: 1.06(comp), 2.06(filt), 2.67(core), lmax=2
  valence states:
                energy  radius
    4s(2.00)    -5.291   1.164
    4p(0.00)    -1.326   1.058
    3d(6.00)    -7.505   1.058
    *s          21.920   1.164
    *p          25.885   1.058
    *d          19.706   1.058

  Using partial waves for Fe as LCAO basis

O-setup:
  name: Oxygen
  id: 32ecd46bf208036f09c70b0ec9a88b78
  Z: 8
  valence: 6
  core: 2
  charge: 0.0
  file: /home/murakami/Public/gpaw-setups-0.9.20000/O.PBE.gz
  cutoffs: 0.67(comp), 1.17(filt), 0.83(core), lmax=2
  valence states:
                energy  radius
    2s(2.00)   -23.961   0.688
    2p(4.00)    -9.029   0.598
    *s           3.251   0.688
    *p          18.182   0.598
    *d           0.000   0.619

  Using partial waves for O as LCAO basis

F-setup:
  name: Fluorine
  id: 9cd46ba2a61e170ad72278be75b55cc0
  Z: 9
  valence: 7
  core: 2
  charge: 0.0
  file: /home/murakami/Public/gpaw-setups-0.9.20000/F.PBE.gz
  cutoffs: 0.64(comp), 1.14(filt), 0.74(core), lmax=2
  valence states:
                energy  radius
    2s(2.00)   -29.898   0.635
    2p(5.00)   -11.110   0.635
    *s          -2.687   0.635
    *p          16.102   0.635
    *d           0.000   0.635

  Using partial waves for F as LCAO basis

Reference energy: -648925.267931

Spin-paired calculation

Occupation numbers:
  Fermi-Dirac: width=0.1000 eV

Convergence criteria:
  Maximum total energy change: 0.0005 eV / electron
  Maximum integral of absolute density change: 0.0001 electrons
  Maximum integral of absolute eigenstate change: 4e-08 eV^2
  Maximum number of iterations: 300

Symmetries present (total): 1

  ( 1  0  0)
  ( 0  1  0)
  ( 0  0  1)

1 k-point (Gamma)
1 k-point in the irreducible part of the Brillouin zone
       k-points in crystal coordinates                weights
   0:     0.00000000    0.00000000    0.00000000          1/1

Wave functions: Uniform real-space grid
  Kinetic energy operator: 8*3+1=25 point O(h^6) finite-difference Laplacian
  ScaLapack parameters: grid=1x1, blocksize=None 

Eigensolver
   Davidson(niter=1, smin=None, normalize=True) 

Densities:
  Coarse grid: 48*28*76 grid
  Fine grid: 96*56*152 grid
  Total Charge: 0.000000 

Density mixing:
  Method: separate
  Backend: pulay
  Linear mixing parameter: 0.05
  Mixing with 5 old densities
  Damping of long wave oscillations: 50 

Hamiltonian:
  XC and Coulomb potentials evaluated on a 96*56*152 grid
  Using the PBE Exchange-Correlation functional
  Interpolation: tri-quintic (5. degree polynomial)
  Poisson solver: Jacobi solver with 4 multi-grid levels
    Coarsest grid: 12 x 7 x 19 points
    Stencil: 8*3+1=25 point O(h^6) finite-difference Laplacian
    Max iterations: 1000
    Tolerance: 2.000000e-10 

Memory estimate:
  Process memory now: 1099.94 MiB
  Calculator: 625.23 MiB
    Density: 115.67 MiB
      Arrays: 20.26 MiB
      Localized functions: 87.61 MiB
      Mixer: 7.79 MiB
    Hamiltonian: 34.99 MiB
      Arrays: 13.25 MiB
      XC: 0.00 MiB
      Poisson: 15.10 MiB
      vbar: 6.65 MiB
    Wavefunctions: 474.57 MiB
      Arrays psit_nG: 224.44 MiB
      Eigensolver: 234.67 MiB
      Projections: 1.66 MiB
      Projectors: 13.80 MiB

Total number of cores used: 1

Number of atoms: 52
Number of atomic orbitals: 288
Number of bands in calculation: 288
Bands to converge: occupied states only
Number of valence electrons: 376

... initialized

Initializing position-dependent things.

Density initialized from atomic densities
Creating initial wave functions:
  288 bands from LCAO basis set

                                           
                                           
                                           
                                           
                           Fe              
              F       F                    
             Fe              O             
               O        F      F           
                            Fe             
         F       F        F                
               Fe                          
            FFe    F      F                
              F        F     F             
         F     F       Fe                  
                        F   Fe             
             Fe  O        F     F          
               Fe Fe                       
            F      F   Fe  O               
              F       F     Fe             
                          Fe               
         F   FeF        F                  
                          F                
          F     F Fe                       
            F                              
                    F     F Fe             
                                           
                                           
                                           
                                           
                                           

Positions:
   0 Fe     1.542848    2.559604    2.677597    ( 0.0000,  0.0000,  0.0000)
   1 Fe     1.542848    2.780392   10.155423    ( 0.0000,  0.0000,  0.0000)
   2 Fe     6.243444    5.301767    2.635533    ( 0.0000,  0.0000,  0.0000)
   3 Fe     6.243444    0.086339   10.113358    ( 0.0000,  0.0000,  0.0000)
   4 Fe     1.648330    2.547777   14.537576    ( 0.0000,  0.0000,  0.0000)
   5 Fe     1.656791    2.840329    7.059675    ( 0.0000,  0.0000,  0.0000)
   6 Fe     6.432934    5.241830   14.494760    ( 0.0000,  0.0000,  0.0000)
   7 Fe     6.348925    0.146276    7.017686    ( 0.0000,  0.0000,  0.0000)
   8 Fe     3.117708    0.158486   12.271643    ( 0.0000,  0.0000,  0.0000)
   9 Fe     3.117708    5.197270    4.919445    ( 0.0000,  0.0000,  0.0000)
  10 Fe     7.818303    2.897874   12.229578    ( 0.0000,  0.0000,  0.0000)
  11 Fe     7.818303    2.535567    4.751753    ( 0.0000,  0.0000,  0.0000)
  12 Fe     3.136416    0.023277    7.705724    ( 0.0000,  0.0000,  0.0000)
  13 Fe     3.136416    5.364829    0.373402    ( 0.0000,  0.0000,  0.0000)
  14 Fe     7.858004    2.717330    7.663472    ( 0.0000,  0.0000,  0.0000)
  15 Fe     7.837011    2.670776    0.185834    ( 0.0000,  0.0000,  0.0000)
  16 O      2.907450    1.440823   13.814659    ( 0.0000,  0.0000,  0.0000)
  17 O      2.907450    3.947283    6.336834    ( 0.0000,  0.0000,  0.0000)
  18 O      7.608045    4.134876   13.772595    ( 0.0000,  0.0000,  0.0000)
  19 O      7.608045    1.253230    6.294769    ( 0.0000,  0.0000,  0.0000)
  20 F      0.036298    1.987360    3.648091    ( 0.0000,  0.0000,  0.0000)
  21 F      0.036298    3.400746   11.125917    ( 0.0000,  0.0000,  0.0000)
  22 F      4.736893    4.681413    3.606027    ( 0.0000,  0.0000,  0.0000)
  23 F      4.736893    0.706693   11.083852    ( 0.0000,  0.0000,  0.0000)
  24 F      0.243622    2.130333    8.659520    ( 0.0000,  0.0000,  0.0000)
  25 F      0.243622    3.257773    1.181694    ( 0.0000,  0.0000,  0.0000)
  26 F      4.944218    4.824386    8.617455    ( 0.0000,  0.0000,  0.0000)
  27 F      4.944218    0.563720    1.139630    ( 0.0000,  0.0000,  0.0000)
  28 F      1.655719    1.153971    1.234055    ( 0.0000,  0.0000,  0.0000)
  29 F      1.655719    4.234135    8.711881    ( 0.0000,  0.0000,  0.0000)
  30 F      6.400613    3.848024    1.191594    ( 0.0000,  0.0000,  0.0000)
  31 F      6.356314    1.584917    8.669816    ( 0.0000,  0.0000,  0.0000)
  32 F      1.706072    1.148103   10.928515    ( 0.0000,  0.0000,  0.0000)
  33 F      1.706072    4.291923    3.565923    ( 0.0000,  0.0000,  0.0000)
  34 F      6.406667    3.790236   11.001684    ( 0.0000,  0.0000,  0.0000)
  35 F      6.406667    1.597870    3.523859    ( 0.0000,  0.0000,  0.0000)
  36 F      1.776853    1.087643    6.320255    ( 0.0000,  0.0000,  0.0000)
  37 F      1.776853    4.300463   13.798081    ( 0.0000,  0.0000,  0.0000)
  38 F      6.477449    3.781696    6.278191    ( 0.0000,  0.0000,  0.0000)
  39 F      6.519040    1.606410   13.755644    ( 0.0000,  0.0000,  0.0000)
  40 F      2.759033    1.868962    8.623789    ( 0.0000,  0.0000,  0.0000)
  41 F      2.759033    3.519144    1.145964    ( 0.0000,  0.0000,  0.0000)
  42 F      7.459629    4.615511    8.581725    ( 0.0000,  0.0000,  0.0000)
  43 F      7.459629    0.825091    1.103899    ( 0.0000,  0.0000,  0.0000)
  44 F      2.849557    1.646664    3.683786    ( 0.0000,  0.0000,  0.0000)
  45 F      2.849557    3.741442   11.236688    ( 0.0000,  0.0000,  0.0000)
  46 F      7.550153    4.340717    3.641721    ( 0.0000,  0.0000,  0.0000)
  47 F      7.464593    1.047389   11.120312    ( 0.0000,  0.0000,  0.0000)
  48 F      4.613296    0.725498    6.284284    ( 0.0000,  0.0000,  0.0000)
  49 F      4.613296    4.662608   13.762110    ( 0.0000,  0.0000,  0.0000)
  50 F      9.313892    3.419551    6.242220    ( 0.0000,  0.0000,  0.0000)
  51 F      9.256394    1.968555   13.686206    ( 0.0000,  0.0000,  0.0000)

Unit cell:
           periodic     x           y           z      points  spacing
  1. axis:    yes    9.401191    0.000000   -0.084129    48     0.1959
  2. axis:    yes    0.000000    5.388106    0.000000    28     0.1924
  3. axis:    yes    0.000000    0.000000   14.955651    76     0.1968

  Lengths:   9.401567   5.388106  14.955651
  Angles:   90.000000  90.512712  90.000000

Effective grid spacing dv^(1/3) = 0.1950

                     log10-error:    total        iterations:
           time      wfs    density  energy       fermi  poisson
iter:   1  01:57:50  +1.49   +inf  -311.213577    3      19     
iter:   2  01:58:17  +0.30   +inf  -312.791377    3             
iter:   3  01:58:45  -0.29   +inf  -313.222846    2             
iter:   4  01:59:19  -0.45  -1.13  -310.995057    3      20     
iter:   5  01:59:54  -0.43  -1.15  -325.433120    3      31     
iter:   6  02:00:30  -0.23  -1.12  -369.204444    4      37     
iter:   7  02:01:05  -0.24  -1.08  -314.023451    37     35     
iter:   8  02:01:40  -0.34  -1.28  -306.006538    3      28     
iter:   9  02:02:16  -0.75  -1.36  -315.568046    4      33     
iter:  10  02:02:50  -0.82  -1.25  -305.398462    3      33     
iter:  11  02:03:24  -1.20  -1.35  -301.909129    3      26     
iter:  12  02:03:58  -1.55  -1.41  -301.925331    3      29     
iter:  13  02:04:32  -1.68  -1.41  -300.510110    4      27     
iter:  14  02:05:06  -1.73  -1.45  -300.109251    3      24     
iter:  15  02:05:46  -1.76  -1.47  -300.495138    4      25     
iter:  16  02:06:26  -1.54  -1.47  -300.814749    3      25     
iter:  17  02:07:00  -1.46  -1.48  -304.642311    4      21     
iter:  18  02:07:33  -1.36  -1.42  -300.474103    4      23     
iter:  19  02:08:07  -1.50  -1.55  -300.196462    3      24     
iter:  20  02:08:42  -1.40  -1.59  -310.483619    3      30     
iter:  21  02:09:16  -1.06  -1.44  -300.596517    4      31     
iter:  22  02:09:50  -1.71  -1.58  -299.539013    3      25     
iter:  23  02:10:24  -1.74  -1.67  -302.023274    3      25     
iter:  24  02:10:59  -1.68  -1.57  -299.511490    3      25     
iter:  25  02:11:33  -2.06  -1.69  -299.579180    3      20     
iter:  26  02:12:07  -1.97  -1.69  -300.247315    3      23     
iter:  27  02:12:40  -1.64  -1.69  -300.954557    3      23     
iter:  28  02:13:14  -1.85  -1.65  -300.216344    3      27     
iter:  29  02:13:48  -1.79  -1.68  -304.805740    4      29     
iter:  30  02:14:22  -1.63  -1.52  -299.825078    4      28     
iter:  31  02:14:57  -2.24  -1.73  -299.202063    3      19     
iter:  32  02:15:30  -2.52  -1.80  -299.354548    3      17     
iter:  33  02:16:10  -2.23  -1.80  -299.459289    3      21     
iter:  34  02:16:45  -2.18  -1.79  -299.807721    3      18     
iter:  35  02:17:20  -1.72  -1.78  -309.384043    4      29     
iter:  36  02:17:54  -1.57  -1.46  -300.771372    3      30     
iter:  37  02:18:28  -1.85  -1.75  -299.977751    3      27     
iter:  38  02:19:02  -1.98  -1.76  -299.825047    3      23     
iter:  39  02:19:37  -2.10  -1.83  -299.267246    3      16     
iter:  40  02:20:11  -2.81  -1.89  -299.213454    2      18     
iter:  41  02:20:49  -2.32  -1.91  -301.162519    3      25     
iter:  42  02:21:27  -1.94  -1.71  -301.155252    3      28     
iter:  43  02:22:01  -2.04  -1.72  -299.283843    3      26     
iter:  44  02:22:34  -2.55  -1.92  -299.290325    3      17     
iter:  45  02:23:09  -2.49  -1.94  -299.513415    2      22     
iter:  46  02:23:43  -2.60  -1.90  -299.233994    3      22     
iter:  47  02:24:16  -2.63  -1.96  -299.432182    3      16     
iter:  48  02:24:48  -2.31  -1.97  -299.522669    3      13     
iter:  49  02:25:22  -2.03  -1.98  -301.543604    3      26     
iter:  50  02:25:56  -1.91  -1.73  -300.018355    3      24     
iter:  51  02:26:30  -2.24  -1.91  -299.670537    3      24     
iter:  52  02:27:05  -2.11  -2.02  -300.195089    3      26     
iter:  53  02:27:40  -2.15  -1.85  -299.446641    3      25     
iter:  54  02:28:14  -2.47  -2.04  -299.271702    3      16     
iter:  55  02:28:47  -3.00  -2.11  -299.142763    3      11     
iter:  56  02:29:20  -3.73  -2.18  -299.155432    2      10     
iter:  57  02:29:55  -2.44  -2.18  -300.568187    3      25     
iter:  58  02:30:30  -2.27  -1.84  -299.330364    3      26     
iter:  59  02:31:04  -2.69  -2.09  -299.203445    2      21     
iter:  60  02:31:38  -2.90  -2.16  -299.285222    3      18     
iter:  61  02:32:11  -2.81  -2.16  -299.187524    3      10     
iter:  62  02:32:45  -3.32  -2.20  -299.131159    2      14     
iter:  63  02:33:18  -3.17  -2.24  -299.232890    3      16     
iter:  64  02:33:53  -2.89  -2.20  -299.201688    3      19     
iter:  65  02:34:27  -2.56  -2.23  -299.844488    3      23     
iter:  66  02:35:02  -2.43  -2.00  -299.475250    3      23     
iter:  67  02:35:36  -2.51  -2.15  -299.374300    3      20     
iter:  68  02:36:10  -2.57  -2.22  -299.228431    3      17     
iter:  69  02:36:44  -2.91  -2.25  -299.196816    3      18     
iter:  70  02:37:18  -2.95  -2.33  -299.150123    3      16     
iter:  71  02:37:52  -3.58  -2.38  -299.142762    2      16     
iter:  72  02:38:25  -3.54  -2.42  -299.162505    3      13     
iter:  73  02:38:59  -3.35  -2.46  -299.184214    3      17     
iter:  74  02:39:34  -2.71  -2.40  -299.532560    3      22     
iter:  75  02:40:07  -2.63  -2.12  -299.213703    2      16     
iter:  76  02:40:42  -2.93  -2.44  -299.272866    3      20     
iter:  77  02:41:16  -3.18  -2.32  -299.136328    3      19     
iter:  78  02:41:49  -3.72  -2.57  -299.122851    2      11     
iter:  79  02:42:23  -3.39  -2.62  -299.188861    2      16     
iter:  80  02:42:57  -3.35  -2.42  -299.118053    2      17     
iter:  81  02:43:30  -3.40  -2.66  -299.181612    3      9      
iter:  82  02:44:04  -3.34  -2.49  -299.134928    2      14     
iter:  83  02:44:37  -3.68  -2.65  -299.128498    3      13     
iter:  84  02:45:11  -3.88  -2.60  -299.115690    2      14     
iter:  85  02:45:43  -4.02  -2.70  -299.121550    2      8      
iter:  86  02:46:16  -3.85  -2.67  -299.114915    2      11     
iter:  87  02:46:49  -4.23  -2.72  -299.122980    2      12     
iter:  88  02:47:20  -4.17  -2.71  -299.117542    2      6      
iter:  89  02:47:52  -4.04  -2.73  -299.132747    2      12     
iter:  90  02:48:25  -4.03  -2.67  -299.120374    2      15     
iter:  91  02:48:57  -4.09  -2.73  -299.116071    2      10     
iter:  92  02:49:29  -3.85  -2.75  -299.126991    2      10     
iter:  93  02:50:03  -4.04  -2.73  -299.120676    2      14     
iter:  94  02:50:35  -4.11  -2.73  -299.127128    3      8      
iter:  95  02:51:08  -4.21  -2.79  -299.122558    2      10     
iter:  96  02:51:42  -4.12  -2.77  -299.120237    2      14     
iter:  97  02:52:14  -4.26  -2.77  -299.121319    3      9      
iter:  98  02:52:46  -4.03  -2.83  -299.117786    3      9      
iter:  99  02:53:18  -4.05  -2.80  -299.127777    2      14     
iter: 100  02:53:50  -4.14  -2.77  -299.116080    2      9      
iter: 101  02:54:22  -4.44  -2.87  -299.120400    2      9      
iter: 102  02:54:54  -4.12  -2.90  -299.131825    2      15     
iter: 103  02:55:28  -4.05  -2.73  -299.112921    2      12     
iter: 104  02:56:00  -4.26  -2.90  -299.115620    2      6      
iter: 105  02:56:39  -4.55  -2.96  -299.116616    2      11     
iter: 106  02:57:17  -4.53  -2.92  -299.116055    2      6      
iter: 107  02:57:54  -5.01  -2.99  -299.114655    2      6      
iter: 108  02:58:26  -4.39  -3.04  -299.126846    2      14     
iter: 109  02:58:58  -4.27  -2.78  -299.113976    2      13     
iter: 110  02:59:32  -4.59  -3.03  -299.114211    2      5      
iter: 111  03:00:03  -4.64  -3.05  -299.121153    2      9      
iter: 112  03:00:35  -4.45  -3.00  -299.113883    2      5      
iter: 113  03:01:08  -4.89  -3.03  -299.113551    2      7      
iter: 114  03:01:39  -4.88  -3.11  -299.111329    2      5      
iter: 115  03:02:12  -4.50  -3.10  -299.116130    2      7      
iter: 116  03:02:45  -4.59  -3.09  -299.116627    2      5      
iter: 117  03:03:17  -4.52  -3.09  -299.121225    2      11     
iter: 118  03:03:49  -4.28  -3.02  -299.122978    2      11     
iter: 119  03:04:21  -4.35  -3.02  -299.117575    2      12     
iter: 120  03:04:53  -4.54  -3.04  -299.112344    2      8      
iter: 121  03:05:26  -4.66  -3.12  -299.115192    2      5      
iter: 122  03:05:57  -5.01  -3.20  -299.113547    2      5      
iter: 123  03:06:35  -5.04  -3.26  -299.116029    2      4      
iter: 124  03:07:14  -4.92  -3.23  -299.114156    2      4      
iter: 125  03:07:53  -4.55  -3.28  -299.123029    2      12     
iter: 126  03:08:26  -4.49  -2.92  -299.114339    2      11     
iter: 127  03:08:58  -5.02  -3.29  -299.114544    2      8      
iter: 128  03:09:30  -4.87  -3.28  -299.113955    2      6      
iter: 129  03:10:02  -5.28  -3.35  -299.114072    2      4      
iter: 130  03:10:33  -5.41  -3.36  -299.114520    2      4      
iter: 131  03:11:06  -5.22  -3.39  -299.113486    2      4      
iter: 132  03:11:37  -4.98  -3.36  -299.114007    2      5      
iter: 133  03:12:11  -4.93  -3.40  -299.118608    2      9      
iter: 134  03:12:44  -4.67  -3.13  -299.115337    2      10     
iter: 135  03:13:15  -5.09  -3.34  -299.114364    2      5      
iter: 136  03:13:46  -5.63  -3.47  -299.113400    2      3      
iter: 137  03:14:18  -5.65  -3.50  -299.114212    2      4      
iter: 138  03:14:49  -5.13  -3.52  -299.115120    2      6      
iter: 139  03:15:23  -4.96  -3.40  -299.115309    2      7      
iter: 140  03:15:55  -5.08  -3.30  -299.114407    2      7      
iter: 141  03:16:33  -5.39  -3.52  -299.113500    2      4      
iter: 142  03:17:12  -5.63  -3.54  -299.114025    2      3      
iter: 143  03:17:48  -6.30  -3.64  -299.113756    2      3      
iter: 144  03:18:19  -5.68  -3.68  -299.113866    2      3      
iter: 145  03:18:51  -5.68  -3.59  -299.114045    2      3      
iter: 146  03:19:22  -5.86  -3.68  -299.114327    2      5      
iter: 147  03:19:54  -5.41  -3.63  -299.115111    2      4      
iter: 148  03:20:25  -5.31  -3.63  -299.113785    2      4      
iter: 149  03:20:57  -5.57  -3.59  -299.113807    2      4      
iter: 150  03:21:29  -5.72  -3.69  -299.113694    2      3      
iter: 151  03:22:02  -5.74  -3.72  -299.113968    2      3      
iter: 152  03:22:34  -5.55  -3.83  -299.114421    2      5      
iter: 153  03:23:05  -5.50  -3.55  -299.114314    2      4      
iter: 154  03:23:36  -6.09  -3.78  -299.114228    2      3      
iter: 155  03:24:07  -6.36  -3.84  -299.113857    2      2      
iter: 156  03:24:38  -6.06  -3.93  -299.113982    2      4      
iter: 157  03:25:11  -5.93  -3.72  -299.113827    2      3      
iter: 158  03:25:42  -6.56  -3.90  -299.113978    2      2      
iter: 159  03:26:19  -6.76  -3.95  -299.113957    2      2      
iter: 160  03:26:57  -6.71  -3.95  -299.113835    2      2      
iter: 161  03:27:28  -6.90  -3.96  -299.113895    2      2      
iter: 162  03:28:00  -7.11  -3.99  -299.113926    2      2      
iter: 163  03:28:31  -6.04  -4.00  -299.113720    2      4      
iter: 164  03:29:02  -5.88  -3.74  -299.114017    2      3      
iter: 165  03:29:33  -6.72  -3.99  -299.114100    2      2      
iter: 166  03:30:05  -6.57  -4.02  -299.113832    2      3      
iter: 167  03:30:37  -6.35  -3.93  -299.114391    2      4      
iter: 168  03:31:09  -5.78  -3.70  -299.114114    2      4      
iter: 169  03:31:42  -6.14  -3.94  -299.113860    2      3      
iter: 170  03:32:13  -6.18  -3.95  -299.113887    2      3      
iter: 171  03:32:44  -5.83  -3.89  -299.114282    2      3      
iter: 172  03:33:15  -5.92  -3.79  -299.114047    2      3      
iter: 173  03:33:46  -6.84  -4.00  -299.113829    2      2      
iter: 174  03:34:17  -6.10  -4.07  -299.114666    2      3      
iter: 175  03:34:50  -6.03  -3.89  -299.114040    2      3      
iter: 176  03:35:22  -6.51  -3.97  -299.113995    2      2      
iter: 177  03:35:59  -7.07  -4.06  -299.113946    2      2      
iter: 178  03:36:35  -7.32  -4.13  -299.113966    2      2      
iter: 179  03:37:06  -6.82  -4.17  -299.114116    2      2      
iter: 180  03:37:38  -6.66  -4.09  -299.113744    2      2      
iter: 181  03:38:09  -7.07  -4.16  -299.113982    2      2      
iter: 182  03:38:40  -7.50  -4.21  -299.113975    2      2      

Converged after 182 iterations.

Dipole moment: (-23.384139, -5.921622, 2.150651) |e|*Ang

Energy contributions relative to reference atoms: (reference = -648925.267931)

Kinetic:       +209.759763
Potential:     -242.701843
External:        +0.000000
XC:            -278.775855
Entropy (-ST):   -2.836523
Local:          +14.022222
--------------------------
Free energy:   -300.532236
Extrapolated:  -299.113975

Fermi level: 1.53324

 Band  Eigenvalues  Occupancy
    0    -22.37171    2.00000
    1    -22.30702    2.00000
    2    -22.22381    2.00000
    3    -22.19551    2.00000
    4    -22.09391    2.00000
    5    -22.05543    2.00000
    6    -22.01600    2.00000
    7    -21.98923    2.00000
    8    -21.93901    2.00000
    9    -21.89093    2.00000
   10    -21.86589    2.00000
   11    -21.74835    2.00000
   12    -21.71058    2.00000
   13    -21.69393    2.00000
   14    -21.64924    2.00000
   15    -21.60663    2.00000
   16    -21.59876    2.00000
   17    -21.57190    2.00000
   18    -21.56607    2.00000
   19    -21.52604    2.00000
   20    -21.49931    2.00000
   21    -21.48073    2.00000
   22    -21.46600    2.00000
   23    -21.43106    2.00000
   24    -21.38440    2.00000
   25    -21.34470    2.00000
   26    -21.21811    2.00000
   27    -21.19681    2.00000
   28    -21.11644    2.00000
   29    -21.08553    2.00000
   30    -21.04006    2.00000
   31    -20.91117    2.00000
   32    -17.29091    2.00000
   33    -17.27811    2.00000
   34    -16.96060    2.00000
   35    -16.76327    2.00000
   36     -5.48515    2.00000
   37     -5.41207    2.00000
   38     -5.39037    2.00000
   39     -5.32360    2.00000
   40     -5.26332    2.00000
   41     -5.19091    2.00000
   42     -5.13813    2.00000
   43     -5.01835    2.00000
   44     -4.95355    2.00000
   45     -4.80826    2.00000
   46     -4.77196    2.00000
   47     -4.70333    2.00000
   48     -4.64656    2.00000
   49     -4.63021    2.00000
   50     -4.61584    2.00000
   51     -4.57300    2.00000
   52     -4.55022    2.00000
   53     -4.51957    2.00000
   54     -4.47929    2.00000
   55     -4.45028    2.00000
   56     -4.43684    2.00000
   57     -4.41260    2.00000
   58     -4.38463    2.00000
   59     -4.35156    2.00000
   60     -4.34681    2.00000
   61     -4.31270    2.00000
   62     -4.27589    2.00000
   63     -4.25342    2.00000
   64     -4.23887    2.00000
   65     -4.22450    2.00000
   66     -4.18746    2.00000
   67     -4.15852    2.00000
   68     -4.14850    2.00000
   69     -4.10808    2.00000
   70     -4.08910    2.00000
   71     -4.07659    2.00000
   72     -4.04759    2.00000
   73     -4.03948    2.00000
   74     -3.98776    2.00000
   75     -3.98163    2.00000
   76     -3.95812    2.00000
   77     -3.92005    2.00000
   78     -3.87952    2.00000
   79     -3.86643    2.00000
   80     -3.83853    2.00000
   81     -3.77861    2.00000
   82     -3.68514    2.00000
   83     -3.65236    2.00000
   84     -3.63618    2.00000
   85     -3.58861    2.00000
   86     -3.55345    2.00000
   87     -3.51841    2.00000
   88     -3.46899    2.00000
   89     -3.46253    2.00000
   90     -3.42485    2.00000
   91     -3.35981    2.00000
   92     -3.33140    2.00000
   93     -3.27120    2.00000
   94     -3.25564    2.00000
   95     -3.20071    2.00000
   96     -3.14403    2.00000
   97     -3.12801    2.00000
   98     -3.11228    2.00000
   99     -3.06164    2.00000
  100     -3.02928    2.00000
  101     -3.01996    2.00000
  102     -2.99363    2.00000
  103     -2.97051    2.00000
  104     -2.93214    2.00000
  105     -2.89153    2.00000
  106     -2.85987    2.00000
  107     -2.84267    2.00000
  108     -2.83086    2.00000
  109     -2.78408    2.00000
  110     -2.77591    2.00000
  111     -2.75331    2.00000
  112     -2.72554    2.00000
  113     -2.66915    2.00000
  114     -2.65491    2.00000
  115     -2.63100    2.00000
  116     -2.61736    2.00000
  117     -2.56897    2.00000
  118     -2.54901    2.00000
  119     -2.51608    2.00000
  120     -2.51089    2.00000
  121     -2.47221    2.00000
  122     -2.44480    2.00000
  123     -2.43316    2.00000
  124     -2.40179    2.00000
  125     -2.39759    2.00000
  126     -2.37086    2.00000
  127     -2.35012    2.00000
  128     -2.26603    2.00000
  129     -2.24042    2.00000
  130     -2.19471    2.00000
  131     -2.17495    2.00000
  132     -2.13575    2.00000
  133     -2.12596    2.00000
  134     -2.10592    2.00000
  135     -2.09081    2.00000
  136     -2.02811    2.00000
  137     -1.99017    2.00000
  138     -1.92996    2.00000
  139     -1.89378    2.00000
  140     -1.87254    2.00000
  141     -1.84722    2.00000
  142     -1.79799    2.00000
  143     -1.70091    2.00000
  144      0.72991    1.99935
  145      0.77431    1.99899
  146      0.81201    1.99853
  147      0.82880    1.99826
  148      0.85440    1.99775
  149      0.88151    1.99705
  150      0.91865    1.99572
  151      0.92047    1.99565
  152      0.95033    1.99414
  153      0.96462    1.99324
  154      0.97093    1.99280
  155      0.98315    1.99187
  156      1.00286    1.99010
  157      1.00910    1.98947
  158      1.02223    1.98800
  159      1.04147    1.98548
  160      1.08602    1.97741
  161      1.11524    1.96987
  162      1.12247    1.96764
  163      1.12703    1.96616
  164      1.15145    1.95700
  165      1.16006    1.95322
  166      1.16733    1.94979
  167      1.17669    1.94499
  168      1.18404    1.94092
  169      1.19473    1.93447
  170      1.20720    1.92609
  171      1.21113    1.92325
  172      1.21771    1.91824
  173      1.22829    1.90952
  174      1.23675    1.90193
  175      1.25164    1.88707
  176      1.28303    1.84858
  177      1.31296    1.80101
  178      1.33263    1.76287
  179      1.34426    1.73748
  180      1.34679    1.73166
  181      1.36930    1.67492
  182      1.39546    1.59729
  183      1.40355    1.57064
  184      1.40872    1.55294
  185      1.43069    1.47209
  186      1.46266    1.33897
  187      1.48329    1.24472
  188      1.52080    1.06214
  189      1.54827    0.92503
  190      1.57294    0.80406
  191      1.60940    0.63663
  192      1.62750    0.56076
  193      1.67486    0.39051
  194      1.69896    0.32027
  195      1.71045    0.29057
  196      1.76376    0.18140
  197      1.79599    0.13478
  198      1.82262    0.10493
  199      1.83161    0.09634
  200      1.87515    0.06341
  201      1.88972    0.05505
  202      1.90068    0.04947
  203      1.96079    0.02743
  204      2.06566    0.00970
  205      2.07251    0.00906
  206      2.15740    0.00389
  207      2.15889    0.00383
  208      2.22424    0.00199
  209      2.36471    0.00049
  210      2.39011    0.00038
  211      2.43727    0.00024
  212      2.45936    0.00019
  213      2.48661    0.00014
  214      2.53540    0.00009
  215      2.62015    0.00004
  216      2.65067    0.00003
  217      2.69845    0.00002
  218      2.74303    0.00001
  219      2.76661    0.00001
  220      2.81749    0.00001
  221      2.85237    0.00000
  222      2.94404    0.00000
  223      2.96121    0.00000
  224      4.84844    0.00000
  225      5.67940    0.00000
  226      6.13931    0.00000
  227      6.73748    0.00000
  228      7.33845    0.00000
  229      7.61908    0.00000
  230      7.66658    0.00000
  231      7.89547    0.00000
  232      8.17302    0.00000
  233      8.41125    0.00000
  234      8.54643    0.00000
  235      8.83521    0.00000
  236      9.80529    0.00000
  237      9.96559    0.00000
  238     10.01226    0.00000
  239     10.08523    0.00000
  240     10.33955    0.00000
  241     10.66052    0.00000
  242     10.69710    0.00000
  243     10.79231    0.00000
  244     10.87756    0.00000
  245     10.91120    0.00000
  246     10.91855    0.00000
  247     11.17057    0.00000
  248     11.22414    0.00000
  249     11.31475    0.00000
  250     11.47821    0.00000
  251     11.55355    0.00000
  252     11.68227    0.00000
  253     11.76810    0.00000
  254     11.80406    0.00000
  255     11.84235    0.00000
  256     11.91410    0.00000
  257     11.97596    0.00000
  258     12.16191    0.00000
  259     12.25329    0.00000
  260     12.28244    0.00000
  261     12.31160    0.00000
  262     12.38539    0.00000
  263     12.43523    0.00000
  264     12.44382    0.00000
  265     12.46406    0.00000
  266     12.53539    0.00000
  267     12.55173    0.00000
  268     12.62168    0.00000
  269     12.64622    0.00000
  270     12.73526    0.00000
  271     12.94529    0.00000
  272     12.99691    0.00000
  273     13.05676    0.00000
  274     13.15892    0.00000
  275     13.19893    0.00000
  276     13.28550    0.00000
  277     13.30189    0.00000
  278     13.41258    0.00000
  279     13.48841    0.00000
  280     13.60803    0.00000
  281     13.89996    0.00000
  282     13.97076    0.00000
  283     14.16378    0.00000
  284     14.32431    0.00000
  285     14.38454    0.00000
  286     14.40596    0.00000
  287     14.47365    0.00000

Timing:                              incl.     excl.
-----------------------------------------------------------
Hamiltonian:                         5.200     0.000   0.0% |
 Atomic:                             2.352     0.005   0.0% |
  XC Correction:                     2.347     2.347   0.0% |
 Calculate atomic Hamiltonians:      0.028     0.028   0.0% |
 Communicate:                        0.000     0.000   0.0% |
 Hartree integrate/restrict:         0.015     0.015   0.0% |
 Initialize Hamiltonian:             0.000     0.000   0.0% |
 Poisson:                            2.164     2.164   0.0% |
 XC 3D grid:                         0.635     0.635   0.0% |
 vbar:                               0.005     0.005   0.0% |
LCAO initialization:                20.715     0.235   0.0% |
 LCAO eigensolver:                   2.065     0.000   0.0% |
  Calculate projections:             0.023     0.023   0.0% |
  DenseAtomicCorrection:             0.022     0.022   0.0% |
  Distribute overlap matrix:         0.000     0.000   0.0% |
  Orbital Layouts:                   0.061     0.061   0.0% |
  Potential matrix:                  1.958     1.958   0.0% |
 LCAO to grid:                      17.152    17.152   0.3% |
 Set positions (LCAO WFS):           1.263     0.000   0.0% |
  Basic WFS set positions:           0.002     0.002   0.0% |
  Basis functions set positions:     0.000     0.000   0.0% |
  TCI: Calculate S, T, P:            1.261     1.261   0.0% |
SCF-cycle:                        6083.114     0.151   0.0% |
 Davidson:                        5225.636   781.443  12.8% |----|
  Apply hamiltonian:               119.871   119.871   2.0% ||
  Subspace diag:                  1533.464     0.037   0.0% |
   calc_h_matrix:                  594.800   474.608   7.8% |--|
    Apply hamiltonian:             120.192   120.192   2.0% ||
   diagonalize:                      3.866     3.866   0.1% |
   rotate_psi:                     934.761   934.761  15.3% |-----|
  calc. matrices:                 1833.652  1713.909  28.0% |----------|
   Apply hamiltonian:              119.743   119.743   2.0% ||
  diagonalize:                      17.086    17.086   0.3% |
  rotate_psi:                      940.120   940.120  15.4% |-----|
 Density:                           18.860     0.005   0.0% |
  Atomic density matrices:           1.145     1.145   0.0% |
  Mix:                               8.736     8.736   0.1% |
  Multipole moments:                 0.238     0.238   0.0% |
  Pseudo density:                    8.736     8.731   0.1% |
   Symmetrize density:               0.004     0.004   0.0% |
 Hamiltonian:                      833.062     0.026   0.0% |
  Atomic:                          427.433     0.967   0.0% |
   XC Correction:                  426.467   426.467   7.0% |--|
  Calculate atomic Hamiltonians:     5.431     5.431   0.1% |
  Communicate:                       0.002     0.002   0.0% |
  Hartree integrate/restrict:        3.087     3.087   0.1% |
  Poisson:                         279.766   279.766   4.6% |-|
  XC 3D grid:                      116.242   116.242   1.9% ||
  vbar:                              1.076     1.076   0.0% |
 Orthonormalize:                     5.405     0.000   0.0% |
  calc_s_matrix:                     1.574     1.574   0.0% |
  inverse-cholesky:                  0.004     0.004   0.0% |
  projections:                       1.218     1.218   0.0% |
  rotate_psi_s:                      2.608     2.608   0.0% |
Set symmetry:                        0.001     0.001   0.0% |
Other:                               1.348     1.348   0.0% |
-----------------------------------------------------------
Total:                                      6110.378 100.0%

Memory usage: 1.07 GiB
Date: Fri Mar 29 03:38:40 2019
