
  ___ ___ ___ _ _ _  
 |   |   |_  | | | | 
 | | | | | . | | | | 
 |__ |  _|___|_____|  1.4.0
 |___|_|             

User:   murakami@tssm1.eng.shizuoka.ac.jp
Date:   Wed Mar 27 17:16:05 2019
Arch:   x86_64
Pid:    31289
Python: 3.6.5
gpaw:   /home/murakami/.local/lib/python3.6/site-packages/gpaw
_gpaw:  /home/murakami/.local/lib/python3.6/site-packages/
        _gpaw.cpython-36m-x86_64-linux-gnu.so
ase:    /home/murakami/.local/lib/python3.6/site-packages/ase (version 3.16.2)
numpy:  /home/murakami/.local/lib/python3.6/site-packages/numpy (version 1.15.2)
scipy:  /home/murakami/.local/lib/python3.6/site-packages/scipy (version 1.1.0)
units:  Angstrom and eV
cores:  1

Input parameters:
  kpts: {size: (1, 1, 1)}
  maxiter: 300
  xc: PBE

System changes: positions, numbers, cell, pbc, initial_charges, initial_magmoms 

Initialize ...

Fe-setup:
  name: Iron
  id: 37abbd8d6c3c35915a9b583b742da910
  Z: 26
  valence: 8
  core: 18
  charge: 0.0
  file: /home/murakami/Public/gpaw-setups-0.9.20000/Fe.PBE.gz
  cutoffs: 1.06(comp), 2.06(filt), 2.67(core), lmax=2
  valence states:
                energy  radius
    4s(2.00)    -5.291   1.164
    4p(0.00)    -1.326   1.058
    3d(6.00)    -7.505   1.058
    *s          21.920   1.164
    *p          25.885   1.058
    *d          19.706   1.058

  Using partial waves for Fe as LCAO basis

O-setup:
  name: Oxygen
  id: 32ecd46bf208036f09c70b0ec9a88b78
  Z: 8
  valence: 6
  core: 2
  charge: 0.0
  file: /home/murakami/Public/gpaw-setups-0.9.20000/O.PBE.gz
  cutoffs: 0.67(comp), 1.17(filt), 0.83(core), lmax=2
  valence states:
                energy  radius
    2s(2.00)   -23.961   0.688
    2p(4.00)    -9.029   0.598
    *s           3.251   0.688
    *p          18.182   0.598
    *d           0.000   0.619

  Using partial waves for O as LCAO basis

F-setup:
  name: Fluorine
  id: 9cd46ba2a61e170ad72278be75b55cc0
  Z: 9
  valence: 7
  core: 2
  charge: 0.0
  file: /home/murakami/Public/gpaw-setups-0.9.20000/F.PBE.gz
  cutoffs: 0.64(comp), 1.14(filt), 0.74(core), lmax=2
  valence states:
                energy  radius
    2s(2.00)   -29.898   0.635
    2p(5.00)   -11.110   0.635
    *s          -2.687   0.635
    *p          16.102   0.635
    *d           0.000   0.635

  Using partial waves for F as LCAO basis

Reference energy: -648925.267931

Spin-paired calculation

Occupation numbers:
  Fermi-Dirac: width=0.1000 eV

Convergence criteria:
  Maximum total energy change: 0.0005 eV / electron
  Maximum integral of absolute density change: 0.0001 electrons
  Maximum integral of absolute eigenstate change: 4e-08 eV^2
  Maximum number of iterations: 300

Symmetries present (total): 1

  ( 1  0  0)
  ( 0  1  0)
  ( 0  0  1)

1 k-point (Gamma)
1 k-point in the irreducible part of the Brillouin zone
       k-points in crystal coordinates                weights
   0:     0.00000000    0.00000000    0.00000000          1/1

Wave functions: Uniform real-space grid
  Kinetic energy operator: 12*3+1=37 point O(h^6) finite-difference Laplacian
  ScaLapack parameters: grid=1x1, blocksize=None 

Eigensolver
   Davidson(niter=1, smin=None, normalize=True) 

Densities:
  Coarse grid: 48*28*76 grid
  Fine grid: 96*56*152 grid
  Total Charge: 0.000000 

Density mixing:
  Method: separate
  Backend: pulay
  Linear mixing parameter: 0.05
  Mixing with 5 old densities
  Damping of long wave oscillations: 50 

Hamiltonian:
  XC and Coulomb potentials evaluated on a 96*56*152 grid
  Using the PBE Exchange-Correlation functional
  Interpolation: tri-quintic (5. degree polynomial)
  Poisson solver: Jacobi solver with 4 multi-grid levels
    Coarsest grid: 12 x 7 x 19 points
    Stencil: 12*3+1=37 point O(h^6) finite-difference Laplacian
    Max iterations: 1000
    Tolerance: 2.000000e-10 

Memory estimate:
  Process memory now: 1099.93 MiB
  Calculator: 625.81 MiB
    Density: 116.14 MiB
      Arrays: 20.26 MiB
      Localized functions: 88.08 MiB
      Mixer: 7.79 MiB
    Hamiltonian: 35.03 MiB
      Arrays: 13.25 MiB
      XC: 0.00 MiB
      Poisson: 15.10 MiB
      vbar: 6.68 MiB
    Wavefunctions: 474.64 MiB
      Arrays psit_nG: 224.44 MiB
      Eigensolver: 234.67 MiB
      Projections: 1.66 MiB
      Projectors: 13.87 MiB

Total number of cores used: 1

Number of atoms: 52
Number of atomic orbitals: 288
Number of bands in calculation: 288
Bands to converge: occupied states only
Number of valence electrons: 376

... initialized

Initializing position-dependent things.

Density initialized from atomic densities
Creating initial wave functions:
  288 bands from LCAO basis set

                                           
                                           
                                           
                                           
                          Fe               
              F       F                    
             Fe              O             
               O        F       F          
                            Fe             
         F       F        F                
               Fe                          
            FFe    F   F   F               
              F              F             
         F     F       Fe                  
                        F   Fe             
             Fe  O        F     F          
               Fe Fe                       
            F      F   Fe  O               
              F       F     Fe             
                          Fe               
         F   FeF        F                  
                         F                 
          F     F Fe                       
            F                              
                    F     F Fe             
                                           
                                           
                                           
                                           
                                           

Positions:
   0 Fe     1.565671    2.593853    2.677597    ( 0.0000,  0.0000,  0.0000)
   1 Fe     1.561376    2.730075   10.155423    ( 0.0000,  0.0000,  0.0000)
   2 Fe     6.291928    5.273587    2.635533    ( 0.0000,  0.0000,  0.0000)
   3 Fe     6.236651    0.085880   10.113358    ( 0.0000,  0.0000,  0.0000)
   4 Fe     1.661699    2.534235   14.537576    ( 0.0000,  0.0000,  0.0000)
   5 Fe     1.670086    2.825232    7.059751    ( 0.0000,  0.0000,  0.0000)
   6 Fe     6.387956    5.213968   14.495512    ( 0.0000,  0.0000,  0.0000)
   7 Fe     6.345020    0.145499    7.017686    ( 0.0000,  0.0000,  0.0000)
   8 Fe     3.110387    0.197352   12.271643    ( 0.0000,  0.0000,  0.0000)
   9 Fe     3.163841    5.201824    4.885406    ( 0.0000,  0.0000,  0.0000)
  10 Fe     7.836263    2.837377   12.229578    ( 0.0000,  0.0000,  0.0000)
  11 Fe     7.838844    2.522090    4.751753    ( 0.0000,  0.0000,  0.0000)
  12 Fe     3.130846    0.023153    7.705724    ( 0.0000,  0.0000,  0.0000)
  13 Fe     3.187262    5.336314    0.311621    ( 0.0000,  0.0000,  0.0000)
  14 Fe     7.857102    2.702886    7.663660    ( 0.0000,  0.0000,  0.0000)
  15 Fe     7.862259    2.656581    0.185834    ( 0.0000,  0.0000,  0.0000)
  16 O      2.910809    1.433164   13.814659    ( 0.0000,  0.0000,  0.0000)
  17 O      2.940283    3.926303    6.336834    ( 0.0000,  0.0000,  0.0000)
  18 O      7.637065    4.112898   13.772595    ( 0.0000,  0.0000,  0.0000)
  19 O      7.615218    1.246569    6.294769    ( 0.0000,  0.0000,  0.0000)
  20 F      0.052495    1.976797    3.648091    ( 0.0000,  0.0000,  0.0000)
  21 F      0.060358    3.382670   11.125917    ( 0.0000,  0.0000,  0.0000)
  22 F      4.778752    4.656530    3.606027    ( 0.0000,  0.0000,  0.0000)
  23 F      4.721445    0.702937   11.083976    ( 0.0000,  0.0000,  0.0000)
  24 F      0.257427    2.119010    8.659520    ( 0.0000,  0.0000,  0.0000)
  25 F      0.273387    3.200808    1.181694    ( 0.0000,  0.0000,  0.0000)
  26 F      4.983029    4.798743    8.714059    ( 0.0000,  0.0000,  0.0000)
  27 F      4.948701    0.560724    1.139630    ( 0.0000,  0.0000,  0.0000)
  28 F      1.753498    1.147837    1.233270    ( 0.0000,  0.0000,  0.0000)
  29 F      1.759034    4.242843    8.711261    ( 0.0000,  0.0000,  0.0000)
  30 F      6.392032    3.827571    1.191991    ( 0.0000,  0.0000,  0.0000)
  31 F      6.364449    1.531896    8.669816    ( 0.0000,  0.0000,  0.0000)
  32 F      1.708231    1.090357   11.043749    ( 0.0000,  0.0000,  0.0000)
  33 F      1.744271    4.269110    3.565923    ( 0.0000,  0.0000,  0.0000)
  34 F      6.434488    3.770090   11.001684    ( 0.0000,  0.0000,  0.0000)
  35 F      6.419180    1.586745    3.523859    ( 0.0000,  0.0000,  0.0000)
  36 F      1.782468    1.081862    6.320255    ( 0.0000,  0.0000,  0.0000)
  37 F      1.807470    4.277605   13.798081    ( 0.0000,  0.0000,  0.0000)
  38 F      6.508725    3.761596    6.278191    ( 0.0000,  0.0000,  0.0000)
  39 F      6.482405    1.597871   13.756016    ( 0.0000,  0.0000,  0.0000)
  40 F      2.770529    1.876821    8.623789    ( 0.0000,  0.0000,  0.0000)
  41 F      2.791677    3.500439    1.145964    ( 0.0000,  0.0000,  0.0000)
  42 F      7.496615    4.538761    8.581725    ( 0.0000,  0.0000,  0.0000)
  43 F      7.466611    0.820706    1.103899    ( 0.0000,  0.0000,  0.0000)
  44 F      2.862464    1.637912    3.683786    ( 0.0000,  0.0000,  0.0000)
  45 F      2.876817    3.721555   11.161566    ( 0.0000,  0.0000,  0.0000)
  46 F      7.588721    4.317646    3.641721    ( 0.0000,  0.0000,  0.0000)
  47 F      7.551752    1.041821   11.119547    ( 0.0000,  0.0000,  0.0000)
  48 F      4.615463    0.721642    6.293168    ( 0.0000,  0.0000,  0.0000)
  49 F      4.647371    4.637825   13.762110    ( 0.0000,  0.0000,  0.0000)
  50 F      9.341726    3.401375    6.242220    ( 0.0000,  0.0000,  0.0000)
  51 F      9.322305    1.958092   13.720045    ( 0.0000,  0.0000,  0.0000)

Unit cell:
           periodic     x           y           z      points  spacing
  1. axis:    yes    9.401191    0.000000   -0.084129    48     0.1958
  2. axis:    yes    0.051322    5.359467    0.000000    28     0.1914
  3. axis:    yes   -0.011200    0.000000   14.955651    76     0.1968

  Lengths:   9.401567   5.359713  14.955655
  Angles:   90.000411  90.555620  89.451377

Effective grid spacing dv^(1/3) = 0.1947

                     log10-error:    total        iterations:
           time      wfs    density  energy       fermi  poisson
iter:   1  17:17:07  +1.49   +inf  -311.902061    3      18     
iter:   2  17:17:35  +0.30   +inf  -313.475755    3             
iter:   3  17:18:04  -0.29   +inf  -313.905636    2             
iter:   4  17:18:39  -0.46  -1.13  -311.279668    3      18     
iter:   5  17:19:22  -0.43  -1.15  -326.749149    4      30     
iter:   6  17:20:07  -0.18  -1.11  -355.997501    37     36     
iter:   7  17:20:52  -0.26  -1.15  -319.700654    3      36     
iter:   8  17:21:30  -0.42  -1.27  -305.031132    4      30     
iter:   9  17:22:07  -0.73  -1.38  -312.586953    3      32     
iter:  10  17:22:44  -0.86  -1.29  -303.661501    4      31     
iter:  11  17:23:19  -1.45  -1.38  -301.486074    3      26     
iter:  12  17:23:56  -1.47  -1.44  -309.154785    4      30     
iter:  13  17:24:37  -1.29  -1.32  -302.505917    4      31     
iter:  14  17:25:25  -1.52  -1.42  -301.384398    3      24     
iter:  15  17:26:15  -1.74  -1.46  -301.610785    4      24     
iter:  16  17:27:06  -1.44  -1.47  -306.423306    3      29     
iter:  17  17:27:54  -1.49  -1.38  -301.827543    3      29     
iter:  18  17:28:31  -1.55  -1.47  -300.602721    4      23     
iter:  19  17:29:06  -1.45  -1.57  -303.631735    3      19     
iter:  20  17:29:42  -1.48  -1.48  -304.058455    3      26     
iter:  21  17:30:18  -1.47  -1.50  -301.327304    3      26     
iter:  22  17:30:55  -1.33  -1.60  -307.251498    4      30     
iter:  23  17:31:32  -1.25  -1.49  -302.334019    4      30     
iter:  24  17:32:08  -1.57  -1.55  -300.807189    3      23     
iter:  25  17:32:45  -1.90  -1.64  -300.149566    3      18     
iter:  26  17:33:18  -2.40  -1.68  -299.843129    3      8      
iter:  27  17:33:53  -2.51  -1.71  -300.413841    3      20     
iter:  28  17:34:29  -2.10  -1.67  -301.027958    3      26     
iter:  29  17:35:05  -2.06  -1.64  -300.630030    2      26     
iter:  30  17:35:41  -1.76  -1.67  -303.493301    3      27     
iter:  31  17:36:19  -1.72  -1.58  -300.506603    3      26     
iter:  32  17:36:55  -1.83  -1.77  -301.165500    3      24     
iter:  33  17:37:39  -1.94  -1.68  -300.867399    3      25     
iter:  34  17:38:22  -2.12  -1.72  -300.768316    3      25     
iter:  35  17:39:03  -2.35  -1.74  -299.948831    3      25     
iter:  36  17:39:37  -2.61  -1.83  -300.135041    3      11     
iter:  37  17:40:12  -2.36  -1.84  -300.060611    3      16     
iter:  38  17:40:47  -2.21  -1.85  -301.222509    3      23     
iter:  39  17:41:22  -1.91  -1.77  -300.843039    3      21     
iter:  40  17:41:58  -2.01  -1.90  -300.186060    3      23     
iter:  41  17:42:34  -1.94  -2.11  -301.454156    3      25     
iter:  42  17:43:11  -1.91  -1.82  -300.320457    3      24     
iter:  43  17:43:48  -2.34  -2.12  -300.353619    3      21     
iter:  44  17:44:22  -2.58  -2.08  -299.928022    3      19     
iter:  45  17:44:55  -3.05  -2.29  -299.885548    3      7      
iter:  46  17:45:28  -3.68  -2.32  -299.897169    3      7      
iter:  47  17:46:02  -3.31  -2.35  -299.919300    2      14     
iter:  48  17:46:38  -2.52  -2.34  -300.780389    3      24     
iter:  49  17:47:14  -2.42  -1.96  -300.050487    3      24     
iter:  50  17:47:54  -2.74  -2.34  -300.017872    2      20     
iter:  51  17:48:36  -2.47  -2.42  -300.172782    2      15     
iter:  52  17:49:17  -2.67  -2.23  -299.945201    3      19     
iter:  53  17:49:51  -3.33  -2.49  -299.879701    2      11     
iter:  54  17:50:25  -3.59  -2.70  -299.920098    3      15     
iter:  55  17:51:00  -3.43  -2.53  -299.906922    2      18     
iter:  56  17:51:34  -3.56  -2.58  -299.900416    2      16     
iter:  57  17:52:09  -3.78  -2.61  -299.896052    2      15     
iter:  58  17:52:43  -3.81  -2.64  -299.883342    2      13     
iter:  59  17:53:16  -4.16  -2.73  -299.876362    2      5      
iter:  60  17:53:50  -4.60  -2.77  -299.876830    2      6      
iter:  61  17:54:25  -4.19  -2.78  -299.884416    2      10     
iter:  62  17:54:59  -3.72  -2.75  -299.930288    2      16     
iter:  63  17:55:33  -3.56  -2.55  -299.909678    2      18     
iter:  64  17:56:07  -3.52  -2.62  -299.903469    2      15     
iter:  65  17:56:40  -3.39  -2.71  -299.883065    2      8      
iter:  66  17:57:14  -3.96  -2.80  -299.887148    2      7      
iter:  67  17:57:47  -4.11  -2.83  -299.877732    2      6      
iter:  68  17:58:27  -4.33  -2.89  -299.882248    2      12     
iter:  69  17:59:07  -4.19  -2.83  -299.880926    2      11     
iter:  70  17:59:41  -4.04  -2.89  -299.901871    2      15     
iter:  71  18:00:16  -3.66  -2.72  -299.888629    2      15     
iter:  72  18:00:48  -3.88  -2.83  -299.879708    2      6      
iter:  73  18:01:21  -4.57  -2.95  -299.876791    2      10     
iter:  74  18:01:54  -5.00  -3.01  -299.875143    2      6      
iter:  75  18:02:30  -4.99  -3.04  -299.877286    2      5      
iter:  76  18:03:03  -4.77  -3.05  -299.880126    2      8      
iter:  77  18:03:37  -4.18  -3.00  -299.884235    2      11     
iter:  78  18:04:11  -3.94  -2.94  -299.886522    2      6      
iter:  79  18:04:46  -3.99  -2.90  -299.894187    2      15     
iter:  80  18:05:19  -4.06  -2.77  -299.881987    2      14     
iter:  81  18:05:52  -4.40  -3.06  -299.875798    2      6      
iter:  82  18:06:25  -4.93  -3.15  -299.876584    1      6      
iter:  83  18:06:58  -4.68  -3.19  -299.877640    2      7      
iter:  84  18:07:30  -4.79  -3.09  -299.875839    2      7      
iter:  85  18:08:05  -5.28  -3.24  -299.875979    2      4      
iter:  86  18:08:38  -4.86  -3.22  -299.877096    2      6      
iter:  87  18:09:17  -4.58  -3.15  -299.878281    2      7      
iter:  88  18:09:52  -4.89  -3.19  -299.876882    2      7      
iter:  89  18:10:25  -4.56  -3.21  -299.881079    3      9      
iter:  90  18:10:58  -4.26  -3.22  -299.877793    2      10     
iter:  91  18:11:31  -4.57  -3.22  -299.878175    2      7      
iter:  92  18:12:04  -4.70  -3.21  -299.877789    2      6      
iter:  93  18:12:40  -4.69  -3.64  -299.876905    2      7      
iter:  94  18:13:13  -4.61  -3.25  -299.877891    2      8      
iter:  95  18:13:47  -5.01  -3.34  -299.875742    2      7      
iter:  96  18:14:21  -5.23  -3.80  -299.876872    2      4      
iter:  97  18:14:53  -5.53  -3.68  -299.876506    2      3      
iter:  98  18:15:25  -6.26  -4.00  -299.876221    2      3      
iter:  99  18:15:57  -6.28  -4.07  -299.876309    2      2      
iter: 100  18:16:30  -6.12  -4.13  -299.876353    2      3      
iter: 101  18:17:02  -6.12  -3.97  -299.876232    2      3      
iter: 102  18:17:36  -6.34  -4.18  -299.876428    2      3      
iter: 103  18:18:09  -6.09  -4.19  -299.876228    2      3      
iter: 104  18:18:48  -6.30  -4.08  -299.876431    2      3      
iter: 105  18:19:24  -6.82  -4.17  -299.876211    2      2      
iter: 106  18:20:00  -7.32  -4.33  -299.876203    2      2      
iter: 107  18:20:36  -7.25  -4.39  -299.876265    2      2      
iter: 108  18:21:08  -7.17  -4.42  -299.876272    2      2      
iter: 109  18:21:42  -7.03  -4.46  -299.876449    2      2      
iter: 110  18:22:15  -7.05  -4.36  -299.876241    2      2      
iter: 111  18:22:47  -7.52  -4.43  -299.876275    2      1      

Converged after 111 iterations.

Dipole moment: (-28.367302, -7.368806, 1.799818) |e|*Ang

Energy contributions relative to reference atoms: (reference = -648925.267931)

Kinetic:       +212.038686
Potential:     -244.465024
External:        +0.000000
XC:            -279.896742
Entropy (-ST):   -2.833491
Local:          +13.863549
--------------------------
Free energy:   -301.293021
Extrapolated:  -299.876275

Fermi level: 1.58260

 Band  Eigenvalues  Occupancy
    0    -22.32794    2.00000
    1    -22.29711    2.00000
    2    -22.16862    2.00000
    3    -22.16630    2.00000
    4    -22.12317    2.00000
    5    -22.05915    2.00000
    6    -22.00355    2.00000
    7    -21.97046    2.00000
    8    -21.92496    2.00000
    9    -21.89383    2.00000
   10    -21.88673    2.00000
   11    -21.80951    2.00000
   12    -21.69479    2.00000
   13    -21.66045    2.00000
   14    -21.65108    2.00000
   15    -21.63890    2.00000
   16    -21.60453    2.00000
   17    -21.59504    2.00000
   18    -21.56903    2.00000
   19    -21.53385    2.00000
   20    -21.46471    2.00000
   21    -21.41629    2.00000
   22    -21.39260    2.00000
   23    -21.34058    2.00000
   24    -21.31619    2.00000
   25    -21.27968    2.00000
   26    -21.20669    2.00000
   27    -21.16420    2.00000
   28    -21.12070    2.00000
   29    -21.07486    2.00000
   30    -20.97645    2.00000
   31    -20.88155    2.00000
   32    -17.08907    2.00000
   33    -16.98697    2.00000
   34    -16.92267    2.00000
   35    -16.92212    2.00000
   36     -5.49266    2.00000
   37     -5.39078    2.00000
   38     -5.35925    2.00000
   39     -5.26527    2.00000
   40     -5.20824    2.00000
   41     -5.18936    2.00000
   42     -5.13180    2.00000
   43     -5.06753    2.00000
   44     -4.93695    2.00000
   45     -4.84081    2.00000
   46     -4.76712    2.00000
   47     -4.69370    2.00000
   48     -4.63098    2.00000
   49     -4.62006    2.00000
   50     -4.57046    2.00000
   51     -4.52915    2.00000
   52     -4.50493    2.00000
   53     -4.49167    2.00000
   54     -4.46617    2.00000
   55     -4.46374    2.00000
   56     -4.41260    2.00000
   57     -4.38778    2.00000
   58     -4.34824    2.00000
   59     -4.33972    2.00000
   60     -4.33068    2.00000
   61     -4.30452    2.00000
   62     -4.25951    2.00000
   63     -4.24169    2.00000
   64     -4.21318    2.00000
   65     -4.18239    2.00000
   66     -4.15449    2.00000
   67     -4.11533    2.00000
   68     -4.10247    2.00000
   69     -4.08022    2.00000
   70     -4.06708    2.00000
   71     -4.04219    2.00000
   72     -4.01839    2.00000
   73     -4.01060    2.00000
   74     -3.99006    2.00000
   75     -3.95740    2.00000
   76     -3.94508    2.00000
   77     -3.91393    2.00000
   78     -3.90198    2.00000
   79     -3.85439    2.00000
   80     -3.80679    2.00000
   81     -3.78506    2.00000
   82     -3.68657    2.00000
   83     -3.66965    2.00000
   84     -3.62036    2.00000
   85     -3.56861    2.00000
   86     -3.51849    2.00000
   87     -3.47544    2.00000
   88     -3.45478    2.00000
   89     -3.41496    2.00000
   90     -3.40198    2.00000
   91     -3.36389    2.00000
   92     -3.29974    2.00000
   93     -3.25807    2.00000
   94     -3.25369    2.00000
   95     -3.16923    2.00000
   96     -3.14516    2.00000
   97     -3.10011    2.00000
   98     -3.07870    2.00000
   99     -3.02695    2.00000
  100     -3.01047    2.00000
  101     -2.97414    2.00000
  102     -2.94312    2.00000
  103     -2.93310    2.00000
  104     -2.91652    2.00000
  105     -2.88727    2.00000
  106     -2.87368    2.00000
  107     -2.84891    2.00000
  108     -2.80083    2.00000
  109     -2.77899    2.00000
  110     -2.75787    2.00000
  111     -2.72585    2.00000
  112     -2.70212    2.00000
  113     -2.65515    2.00000
  114     -2.64438    2.00000
  115     -2.60079    2.00000
  116     -2.56636    2.00000
  117     -2.54412    2.00000
  118     -2.51532    2.00000
  119     -2.48495    2.00000
  120     -2.45605    2.00000
  121     -2.44171    2.00000
  122     -2.41286    2.00000
  123     -2.37122    2.00000
  124     -2.36245    2.00000
  125     -2.32094    2.00000
  126     -2.27881    2.00000
  127     -2.25619    2.00000
  128     -2.23139    2.00000
  129     -2.18254    2.00000
  130     -2.17944    2.00000
  131     -2.15513    2.00000
  132     -2.12736    2.00000
  133     -2.08644    2.00000
  134     -2.06237    2.00000
  135     -2.03872    2.00000
  136     -1.97420    2.00000
  137     -1.93002    2.00000
  138     -1.89588    2.00000
  139     -1.84743    2.00000
  140     -1.82958    2.00000
  141     -1.81921    2.00000
  142     -1.73800    2.00000
  143     -1.71971    2.00000
  144      0.78651    1.99930
  145      0.82850    1.99894
  146      0.85235    1.99865
  147      0.87728    1.99827
  148      0.90465    1.99773
  149      0.91331    1.99752
  150      0.96556    1.99583
  151      0.96774    1.99574
  152      0.99569    1.99437
  153      1.01250    1.99334
  154      1.02481    1.99247
  155      1.02931    1.99212
  156      1.04534    1.99076
  157      1.05861    1.98945
  158      1.07072    1.98811
  159      1.09368    1.98506
  160      1.12881    1.97884
  161      1.16065    1.97101
  162      1.16562    1.96956
  163      1.17768    1.96572
  164      1.19812    1.95812
  165      1.20609    1.95472
  166      1.21295    1.95158
  167      1.22565    1.94521
  168      1.23889    1.93769
  169      1.24751    1.93227
  170      1.25461    1.92747
  171      1.26018    1.92347
  172      1.26708    1.91823
  173      1.27578    1.91113
  174      1.28461    1.90332
  175      1.29244    1.89586
  176      1.32473    1.85896
  177      1.36301    1.79978
  178      1.38121    1.76451
  179      1.38388    1.75891
  180      1.40607    1.70777
  181      1.42356    1.66134
  182      1.44961    1.58166
  183      1.45144    1.57557
  184      1.45937    1.54844
  185      1.48574    1.44969
  186      1.50513    1.36910
  187      1.52998    1.25721
  188      1.57782    1.02390
  189      1.59550    0.93560
  190      1.62017    0.81436
  191      1.66612    0.60512
  192      1.68478    0.52936
  193      1.71984    0.40448
  194      1.73499    0.35778
  195      1.74781    0.32167
  196      1.82582    0.16151
  197      1.83589    0.14718
  198      1.87521    0.10176
  199      1.89280    0.08605
  200      1.92601    0.06250
  201      1.93465    0.05747
  202      1.93969    0.05472
  203      2.01828    0.02532
  204      2.10712    0.01049
  205      2.15140    0.00675
  206      2.22386    0.00328
  207      2.24904    0.00255
  208      2.28011    0.00187
  209      2.42307    0.00045
  210      2.45107    0.00034
  211      2.48935    0.00023
  212      2.50836    0.00019
  213      2.54347    0.00013
  214      2.59323    0.00008
  215      2.69785    0.00003
  216      2.70612    0.00003
  217      2.73467    0.00002
  218      2.81607    0.00001
  219      2.83499    0.00001
  220      2.86279    0.00001
  221      2.91192    0.00000
  222      3.00159    0.00000
  223      3.01672    0.00000
  224      4.91434    0.00000
  225      5.74096    0.00000
  226      6.22184    0.00000
  227      6.82163    0.00000
  228      7.41482    0.00000
  229      7.66101    0.00000
  230      7.78439    0.00000
  231      7.98692    0.00000
  232      8.21436    0.00000
  233      8.47632    0.00000
  234      8.60368    0.00000
  235      8.95489    0.00000
  236      9.87687    0.00000
  237     10.05115    0.00000
  238     10.08222    0.00000
  239     10.17375    0.00000
  240     10.43633    0.00000
  241     10.72420    0.00000
  242     10.82353    0.00000
  243     10.89571    0.00000
  244     10.99268    0.00000
  245     11.01916    0.00000
  246     11.02467    0.00000
  247     11.21647    0.00000
  248     11.28886    0.00000
  249     11.40649    0.00000
  250     11.54767    0.00000
  251     11.66588    0.00000
  252     11.77138    0.00000
  253     11.87640    0.00000
  254     11.88471    0.00000
  255     11.92907    0.00000
  256     12.01438    0.00000
  257     12.02841    0.00000
  258     12.24447    0.00000
  259     12.30238    0.00000
  260     12.34141    0.00000
  261     12.39798    0.00000
  262     12.45905    0.00000
  263     12.49763    0.00000
  264     12.50734    0.00000
  265     12.57312    0.00000
  266     12.59709    0.00000
  267     12.65630    0.00000
  268     12.69206    0.00000
  269     12.76491    0.00000
  270     12.81528    0.00000
  271     13.04864    0.00000
  272     13.05649    0.00000
  273     13.19203    0.00000
  274     13.22254    0.00000
  275     13.26416    0.00000
  276     13.34406    0.00000
  277     13.35660    0.00000
  278     13.47885    0.00000
  279     13.52285    0.00000
  280     13.71177    0.00000
  281     14.02903    0.00000
  282     14.05659    0.00000
  283     14.23627    0.00000
  284     14.37992    0.00000
  285     14.41320    0.00000
  286     14.47450    0.00000
  287     14.52467    0.00000

Timing:                              incl.     excl.
-----------------------------------------------------------
Hamiltonian:                         5.755     0.000   0.0% |
 Atomic:                             2.276     0.005   0.0% |
  XC Correction:                     2.271     2.271   0.1% |
 Calculate atomic Hamiltonians:      0.029     0.029   0.0% |
 Communicate:                        0.000     0.000   0.0% |
 Hartree integrate/restrict:         0.016     0.016   0.0% |
 Initialize Hamiltonian:             0.000     0.000   0.0% |
 Poisson:                            2.790     2.790   0.1% |
 XC 3D grid:                         0.639     0.639   0.0% |
 vbar:                               0.005     0.005   0.0% |
LCAO initialization:                20.915     0.228   0.0% |
 LCAO eigensolver:                   2.091     0.000   0.0% |
  Calculate projections:             0.023     0.023   0.0% |
  DenseAtomicCorrection:             0.022     0.022   0.0% |
  Distribute overlap matrix:         0.000     0.000   0.0% |
  Orbital Layouts:                   0.059     0.059   0.0% |
  Potential matrix:                  1.987     1.987   0.0% |
 LCAO to grid:                      17.431    17.431   0.4% |
 Set positions (LCAO WFS):           1.165     0.000   0.0% |
  Basic WFS set positions:           0.001     0.001   0.0% |
  Basis functions set positions:     0.000     0.000   0.0% |
  TCI: Calculate S, T, P:            1.163     1.163   0.0% |
SCF-cycle:                        3974.498     0.091   0.0% |
 Davidson:                        3356.519   526.432  13.2% |----|
  Apply hamiltonian:               103.468   103.468   2.6% ||
  Subspace diag:                   976.485     0.023   0.0% |
   calc_h_matrix:                  397.326   293.471   7.3% |--|
    Apply hamiltonian:             103.856   103.856   2.6% ||
   diagonalize:                      2.336     2.336   0.1% |
   rotate_psi:                     576.799   576.799  14.4% |-----|
  calc. matrices:                 1158.125  1054.728  26.4% |----------|
   Apply hamiltonian:              103.396   103.396   2.6% ||
  diagonalize:                      10.655    10.655   0.3% |
  rotate_psi:                      581.353   581.353  14.5% |-----|
 Density:                           11.738     0.003   0.0% |
  Atomic density matrices:           0.634     0.634   0.0% |
  Mix:                               5.532     5.532   0.1% |
  Multipole moments:                 0.125     0.125   0.0% |
  Pseudo density:                    5.444     5.441   0.1% |
   Symmetrize density:               0.003     0.003   0.0% |
 Hamiltonian:                      600.748     0.015   0.0% |
  Atomic:                          252.276     0.525   0.0% |
   XC Correction:                  251.750   251.750   6.3% |--|
  Calculate atomic Hamiltonians:     3.482     3.482   0.1% |
  Communicate:                       0.001     0.001   0.0% |
  Hartree integrate/restrict:        1.991     1.991   0.0% |
  Poisson:                         270.265   270.265   6.8% |--|
  XC 3D grid:                       72.053    72.053   1.8% ||
  vbar:                              0.665     0.665   0.0% |
 Orthonormalize:                     5.400     0.000   0.0% |
  calc_s_matrix:                     1.573     1.573   0.0% |
  inverse-cholesky:                  0.004     0.004   0.0% |
  projections:                       1.212     1.212   0.0% |
  rotate_psi_s:                      2.611     2.611   0.1% |
Set symmetry:                        0.001     0.001   0.0% |
Other:                               1.270     1.270   0.0% |
-----------------------------------------------------------
Total:                                      4002.438 100.0%

Memory usage: 1.07 GiB
Date: Wed Mar 27 18:22:47 2019
