
  ___ ___ ___ _ _ _  
 |   |   |_  | | | | 
 | | | | | . | | | | 
 |__ |  _|___|_____|  1.4.0
 |___|_|             

User:   murakami@tssm1.eng.shizuoka.ac.jp
Date:   Tue Mar 26 20:56:41 2019
Arch:   x86_64
Pid:    31289
Python: 3.6.5
gpaw:   /home/murakami/.local/lib/python3.6/site-packages/gpaw
_gpaw:  /home/murakami/.local/lib/python3.6/site-packages/
        _gpaw.cpython-36m-x86_64-linux-gnu.so
ase:    /home/murakami/.local/lib/python3.6/site-packages/ase (version 3.16.2)
numpy:  /home/murakami/.local/lib/python3.6/site-packages/numpy (version 1.15.2)
scipy:  /home/murakami/.local/lib/python3.6/site-packages/scipy (version 1.1.0)
units:  Angstrom and eV
cores:  1

Input parameters:
  kpts: {size: (1, 1, 1)}
  maxiter: 300
  xc: PBE

System changes: positions, numbers, cell, pbc, initial_charges, initial_magmoms 

Initialize ...

Fe-setup:
  name: Iron
  id: 37abbd8d6c3c35915a9b583b742da910
  Z: 26
  valence: 8
  core: 18
  charge: 0.0
  file: /home/murakami/Public/gpaw-setups-0.9.20000/Fe.PBE.gz
  cutoffs: 1.06(comp), 2.06(filt), 2.67(core), lmax=2
  valence states:
                energy  radius
    4s(2.00)    -5.291   1.164
    4p(0.00)    -1.326   1.058
    3d(6.00)    -7.505   1.058
    *s          21.920   1.164
    *p          25.885   1.058
    *d          19.706   1.058

  Using partial waves for Fe as LCAO basis

O-setup:
  name: Oxygen
  id: 32ecd46bf208036f09c70b0ec9a88b78
  Z: 8
  valence: 6
  core: 2
  charge: 0.0
  file: /home/murakami/Public/gpaw-setups-0.9.20000/O.PBE.gz
  cutoffs: 0.67(comp), 1.17(filt), 0.83(core), lmax=2
  valence states:
                energy  radius
    2s(2.00)   -23.961   0.688
    2p(4.00)    -9.029   0.598
    *s           3.251   0.688
    *p          18.182   0.598
    *d           0.000   0.619

  Using partial waves for O as LCAO basis

F-setup:
  name: Fluorine
  id: 9cd46ba2a61e170ad72278be75b55cc0
  Z: 9
  valence: 7
  core: 2
  charge: 0.0
  file: /home/murakami/Public/gpaw-setups-0.9.20000/F.PBE.gz
  cutoffs: 0.64(comp), 1.14(filt), 0.74(core), lmax=2
  valence states:
                energy  radius
    2s(2.00)   -29.898   0.635
    2p(5.00)   -11.110   0.635
    *s          -2.687   0.635
    *p          16.102   0.635
    *d           0.000   0.635

  Using partial waves for F as LCAO basis

Reference energy: -319034.472395

Spin-paired calculation

Occupation numbers:
  Fermi-Dirac: width=0.1000 eV

Convergence criteria:
  Maximum total energy change: 0.0005 eV / electron
  Maximum integral of absolute density change: 0.0001 electrons
  Maximum integral of absolute eigenstate change: 4e-08 eV^2
  Maximum number of iterations: 300

Symmetries present (total): 1

  ( 1  0  0)
  ( 0  1  0)
  ( 0  0  1)

1 k-point (Gamma)
1 k-point in the irreducible part of the Brillouin zone
       k-points in crystal coordinates                weights
   0:     0.00000000    0.00000000    0.00000000          1/1

Wave functions: Uniform real-space grid
  Kinetic energy operator: 8*3+1=25 point O(h^6) finite-difference Laplacian
  ScaLapack parameters: grid=1x1, blocksize=None 

Eigensolver
   Davidson(niter=1, smin=None, normalize=True) 

Densities:
  Coarse grid: 28*24*52 grid
  Fine grid: 56*48*104 grid
  Total Charge: 0.000000 

Density mixing:
  Method: separate
  Backend: pulay
  Linear mixing parameter: 0.05
  Mixing with 5 old densities
  Damping of long wave oscillations: 50 

Hamiltonian:
  XC and Coulomb potentials evaluated on a 56*48*104 grid
  Using the PBE Exchange-Correlation functional
  Interpolation: tri-quintic (5. degree polynomial)
  Poisson solver: Jacobi solver with 4 multi-grid levels
    Coarsest grid: 7 x 6 x 13 points
    Stencil: 8*3+1=25 point O(h^6) finite-difference Laplacian
    Max iterations: 1000
    Tolerance: 2.000000e-10 

Memory estimate:
  Process memory now: 357.29 MiB
  Calculator: 140.46 MiB
    Density: 46.49 MiB
      Arrays: 6.93 MiB
      Localized functions: 36.90 MiB
      Mixer: 2.67 MiB
    Hamiltonian: 12.49 MiB
      Arrays: 4.53 MiB
      XC: 0.00 MiB
      Poisson: 5.17 MiB
      vbar: 2.79 MiB
    Wavefunctions: 81.47 MiB
      Arrays psit_nG: 36.26 MiB
      Eigensolver: 39.01 MiB
      Projections: 0.37 MiB
      Projectors: 5.84 MiB

Total number of cores used: 1

Number of atoms: 24
Number of atomic orbitals: 136
Number of bands in calculation: 136
Bands to converge: occupied states only
Number of valence electrons: 174

... initialized

Initializing position-dependent things.

Density initialized from atomic densities
Creating initial wave functions:
  136 bands from LCAO basis set

                                 
                                 
                                 
                                 
                Fe               
                     O           
                      Fe         
          FF   F    Fe           
                      F          
           Fe                    
           F       F             
              F        Fe        
               Fe                
                                 
             FeF FO   F          
                                 
       F          Fe             
            F     F              
                                 
                                 
                                 
                                 
                                 

Positions:
   0 Fe     1.416738    1.189211    7.926783    ( 0.0000,  0.0000,  0.0000)
   1 Fe     1.416738    3.596231    2.484800    ( 0.0000,  0.0000,  0.0000)
   2 Fe     2.953178    1.172318    5.021961    ( 0.0000,  0.0000,  0.0000)
   3 Fe     2.953178    3.613124   10.463944    ( 0.0000,  0.0000,  0.0000)
   4 Fe     4.323386    1.106753    2.287094    ( 0.0000,  0.0000,  0.0000)
   5 Fe     4.323386    3.678689    7.758496    ( 0.0000,  0.0000,  0.0000)
   6 Fe     5.681193    1.155072   10.063461    ( 0.0000,  0.0000,  0.0000)
   7 Fe     5.681193    3.668668    4.621478    ( 0.0000,  0.0000,  0.0000)
   8 O      4.465826    0.279843    3.926077    ( 0.0000,  0.0000,  0.0000)
   9 O      4.465826    4.505599    9.368060    ( 0.0000,  0.0000,  0.0000)
  10 F      0.078582    0.275431    1.978610    ( 0.0000,  0.0000,  0.0000)
  11 F      0.078582    4.510011    7.420593    ( 0.0000,  0.0000,  0.0000)
  12 F      1.274802    2.150774    5.978278    ( 0.0000,  0.0000,  0.0000)
  13 F      1.274802    2.634668    0.594992    ( 0.0000,  0.0000,  0.0000)
  14 F      1.601658    0.247632    9.814751    ( 0.0000,  0.0000,  0.0000)
  15 F      1.601658    4.537810    4.372768    ( 0.0000,  0.0000,  0.0000)
  16 F      2.763996    2.170342    3.056782    ( 0.0000,  0.0000,  0.0000)
  17 F      2.763996    2.615100    8.590092    ( 0.0000,  0.0000,  0.0000)
  18 F      2.997224    0.170362    6.924657    ( 0.0000,  0.0000,  0.0000)
  19 F      2.997224    4.615080    1.482674    ( 0.0000,  0.0000,  0.0000)
  20 F      4.143358    2.120047    0.420612    ( 0.0000,  0.0000,  0.0000)
  21 F      4.143358    2.665395    5.862595    ( 0.0000,  0.0000,  0.0000)
  22 F      5.583533    2.184578    8.151270    ( 0.0000,  0.0000,  0.0000)
  23 F      5.583533    2.600864    2.709287    ( 0.0000,  0.0000,  0.0000)

Unit cell:
           periodic     x           y           z      points  spacing
  1. axis:    yes    5.735919    0.000000   -0.790267    28     0.2049
  2. axis:    yes    0.000000    4.785442    0.000000    24     0.1994
  3. axis:    yes    0.000000    0.000000   10.883966    52     0.2073

  Lengths:   5.790103   4.785442  10.883966
  Angles:   90.000000  97.844547  90.000000

Effective grid spacing dv^(1/3) = 0.2045

                     log10-error:    total        iterations:
           time      wfs    density  energy       fermi  poisson
iter:   1  20:56:55  +1.56   +inf  -150.126380    3      17     
iter:   2  20:56:59  +0.21   +inf  -150.772993    3             
iter:   3  20:57:01  -0.39   +inf  -150.958811    2             
iter:   4  20:57:06  -0.63  -1.14  -149.217014    3      8      
iter:   5  20:57:11  -0.41  -1.18  -157.396765    3      13     
iter:   6  20:57:16  -0.32  -1.19  -146.655237    3      13     
iter:   7  20:57:21  -0.71  -1.40  -146.046931    3      12     
iter:   8  20:57:26  -1.50  -1.43  -145.922572    3      11     
iter:   9  20:57:30  -1.43  -1.44  -146.505318    4      12     
iter:  10  20:57:35  -1.34  -1.43  -146.101966    3      13     
iter:  11  20:57:40  -1.40  -1.44  -146.919250    4      14     
iter:  12  20:57:45  -1.37  -1.42  -145.714774    3      13     
iter:  13  20:57:50  -1.70  -1.50  -145.635744    4      10     
iter:  14  20:57:55  -1.44  -1.54  -146.161703    4      11     
iter:  15  20:58:00  -1.22  -1.57  -147.814404    3      14     
iter:  16  20:58:05  -1.42  -1.47  -147.112332    3      14     
iter:  17  20:58:11  -1.37  -1.55  -145.514905    4      13     
iter:  18  20:58:18  -1.45  -1.81  -146.310422    4      11     
iter:  19  20:58:24  -1.26  -1.76  -145.786466    4      12     
iter:  20  20:58:30  -1.81  -1.85  -145.665074    3      10     
iter:  21  20:58:36  -1.91  -1.88  -146.018495    3      12     
iter:  22  20:58:41  -1.89  -1.85  -145.697497    3      12     
iter:  23  20:58:48  -1.99  -1.98  -145.733142    3      12     
iter:  24  20:58:53  -2.19  -1.93  -145.510617    3      10     
iter:  25  20:58:59  -2.56  -2.25  -145.505699    3      6      
iter:  26  20:59:03  -2.58  -2.26  -145.518845    3      7      
iter:  27  20:59:08  -2.48  -2.29  -145.545827    3      8      
iter:  28  20:59:14  -2.44  -2.28  -145.477051    3      9      
iter:  29  20:59:19  -2.86  -2.59  -145.466275    3      8      
iter:  30  20:59:24  -3.23  -2.71  -145.470313    3      7      
iter:  31  20:59:30  -3.40  -2.73  -145.465002    2      6      
iter:  32  20:59:35  -3.66  -2.80  -145.462989    3      6      
iter:  33  20:59:41  -3.51  -2.79  -145.468257    3      7      
iter:  34  20:59:47  -3.45  -2.83  -145.469873    2      7      
iter:  35  20:59:53  -3.62  -2.76  -145.469358    2      7      
iter:  36  20:59:59  -3.73  -2.76  -145.463558    3      7      
iter:  37  21:00:05  -3.76  -2.88  -145.464412    3      6      
iter:  38  21:00:10  -4.17  -2.91  -145.464289    2      5      
iter:  39  21:00:16  -4.36  -2.97  -145.462797    2      4      
iter:  40  21:00:21  -4.27  -3.00  -145.464398    2      5      
iter:  41  21:00:26  -4.15  -2.97  -145.466034    2      6      
iter:  42  21:00:32  -4.20  -2.93  -145.464397    2      6      
iter:  43  21:00:37  -4.14  -3.03  -145.463108    2      5      
iter:  44  21:00:42  -4.15  -3.00  -145.463150    2      5      
iter:  45  21:00:46  -4.29  -3.05  -145.463349    2      5      
iter:  46  21:00:52  -4.78  -3.13  -145.462404    2      4      
iter:  47  21:00:57  -4.85  -3.15  -145.462692    2      4      
iter:  48  21:01:03  -4.94  -3.14  -145.462559    2      4      
iter:  49  21:01:09  -4.73  -3.18  -145.463789    2      4      
iter:  50  21:01:13  -4.54  -3.15  -145.463235    2      5      
iter:  51  21:01:18  -4.40  -3.18  -145.462018    2      5      
iter:  52  21:01:25  -4.55  -3.18  -145.463663    2      4      
iter:  53  21:01:31  -4.59  -3.20  -145.464068    2      5      
iter:  54  21:01:37  -4.63  -3.15  -145.462666    2      5      
iter:  55  21:01:44  -5.03  -3.27  -145.461890    2      4      
iter:  56  21:01:50  -5.23  -3.31  -145.462559    2      4      
iter:  57  21:01:55  -4.79  -3.34  -145.463759    2      4      
iter:  58  21:02:00  -4.74  -3.29  -145.461653    2      4      
iter:  59  21:02:05  -4.87  -3.35  -145.462412    2      4      
iter:  60  21:02:11  -4.65  -3.33  -145.463141    2      5      
iter:  61  21:02:16  -4.71  -3.32  -145.463968    2      4      
iter:  62  21:02:21  -4.93  -3.35  -145.462447    2      4      
iter:  63  21:02:26  -5.31  -3.52  -145.461852    2      3      
iter:  64  21:02:32  -5.35  -3.53  -145.462872    2      3      
iter:  65  21:02:38  -5.81  -3.59  -145.462436    2      3      
iter:  66  21:02:43  -5.21  -3.63  -145.462587    2      4      
iter:  67  21:02:49  -5.02  -3.47  -145.461789    2      4      
iter:  68  21:02:56  -5.13  -3.60  -145.463044    2      4      
iter:  69  21:03:02  -5.37  -3.64  -145.463238    2      4      
iter:  70  21:03:08  -5.24  -3.73  -145.462079    2      3      
iter:  71  21:03:14  -5.42  -3.64  -145.462562    2      3      
iter:  72  21:03:19  -6.10  -3.86  -145.462487    2      3      
iter:  73  21:03:24  -6.13  -3.90  -145.462567    2      3      
iter:  74  21:03:29  -5.62  -3.97  -145.461981    2      4      
iter:  75  21:03:35  -5.56  -3.80  -145.462366    2      3      
iter:  76  21:03:40  -6.02  -4.09  -145.462364    2      4      
iter:  77  21:03:45  -5.92  -4.13  -145.462998    2      3      
iter:  78  21:03:51  -6.29  -4.14  -145.462373    2      3      
iter:  79  21:03:56  -6.78  -4.33  -145.462569    2      2      
iter:  80  21:04:00  -7.30  -4.50  -145.462256    2      2      
iter:  81  21:04:05  -7.48  -4.80  -145.462328    2      2      

Converged after 81 iterations.

Dipole moment: (-1.553608, 3.073762, -1.992890) |e|*Ang

Energy contributions relative to reference atoms: (reference = -319034.472395)

Kinetic:       +118.777140
Potential:     -132.679488
External:        +0.000000
XC:            -138.573557
Entropy (-ST):   -1.200471
Local:           +7.613813
--------------------------
Free energy:   -146.062563
Extrapolated:  -145.462328

Fermi level: 3.68495

 Band  Eigenvalues  Occupancy
    0    -20.67198    2.00000
    1    -20.58969    2.00000
    2    -20.37117    2.00000
    3    -20.31879    2.00000
    4    -20.29728    2.00000
    5    -20.26857    2.00000
    6    -20.21486    2.00000
    7    -20.16277    2.00000
    8    -20.15522    2.00000
    9    -20.13717    2.00000
   10    -19.96169    2.00000
   11    -19.88125    2.00000
   12    -19.84456    2.00000
   13    -19.74886    2.00000
   14    -14.68887    2.00000
   15    -14.64036    2.00000
   16     -4.18539    2.00000
   17     -3.82264    2.00000
   18     -3.43455    2.00000
   19     -3.27113    2.00000
   20     -3.26338    2.00000
   21     -3.07242    2.00000
   22     -3.03855    2.00000
   23     -2.97670    2.00000
   24     -2.93341    2.00000
   25     -2.88149    2.00000
   26     -2.76156    2.00000
   27     -2.63314    2.00000
   28     -2.61988    2.00000
   29     -2.60896    2.00000
   30     -2.47234    2.00000
   31     -2.43216    2.00000
   32     -2.39429    2.00000
   33     -2.35586    2.00000
   34     -2.34256    2.00000
   35     -2.28825    2.00000
   36     -2.25145    2.00000
   37     -2.22741    2.00000
   38     -2.11497    2.00000
   39     -2.05858    2.00000
   40     -2.04927    2.00000
   41     -1.98511    2.00000
   42     -1.94538    2.00000
   43     -1.92416    2.00000
   44     -1.75887    2.00000
   45     -1.69544    2.00000
   46     -1.49778    2.00000
   47     -1.47577    2.00000
   48     -1.42965    2.00000
   49     -1.33509    2.00000
   50     -1.12874    2.00000
   51     -1.09805    2.00000
   52     -1.04370    2.00000
   53     -1.02449    2.00000
   54     -0.86160    2.00000
   55     -0.80921    2.00000
   56     -0.77373    2.00000
   57     -0.73223    2.00000
   58     -0.54121    2.00000
   59     -0.48611    2.00000
   60     -0.42697    2.00000
   61     -0.34509    2.00000
   62      0.33986    2.00000
   63      0.39884    2.00000
   64      2.90270    1.99920
   65      2.92452    1.99900
   66      2.98339    1.99821
   67      2.99412    1.99800
   68      3.01466    1.99755
   69      3.03049    1.99713
   70      3.06844    1.99581
   71      3.10574    1.99392
   72      3.13096    1.99218
   73      3.15350    1.99021
   74      3.20953    1.98292
   75      3.23084    1.97890
   76      3.26140    1.97147
   77      3.28052    1.96556
   78      3.29748    1.95932
   79      3.35182    1.93097
   80      3.38139    1.90831
   81      3.38820    1.90216
   82      3.43867    1.84298
   83      3.47192    1.78763
   84      3.55490    1.57183
   85      3.58117    1.47683
   86      3.61159    1.35119
   87      3.71144    0.86833
   88      3.72041    0.82452
   89      3.85333    0.31318
   90      3.94880    0.13340
   91      3.95428    0.12674
   92      4.02263    0.06606
   93      4.07811    0.03847
   94      4.14244    0.02040
   95      4.17041    0.01546
   96      4.39682    0.00162
   97      4.51156    0.00051
   98      4.85238    0.00002
   99      4.92021    0.00001
  100      4.97289    0.00001
  101      5.01682    0.00000
  102      5.10443    0.00000
  103      5.29268    0.00000
  104      6.21082    0.00000
  105      8.02185    0.00000
  106      8.43390    0.00000
  107     10.98688    0.00000
  108     11.33195    0.00000
  109     11.39760    0.00000
  110     11.49782    0.00000
  111     11.75222    0.00000
  112     11.92095    0.00000
  113     12.05572    0.00000
  114     12.16091    0.00000
  115     12.87193    0.00000
  116     13.18662    0.00000
  117     13.22015    0.00000
  118     13.55230    0.00000
  119     13.81843    0.00000
  120     14.57030    0.00000
  121     14.98609    0.00000
  122     15.03132    0.00000
  123     15.10437    0.00000
  124     15.34707    0.00000
  125     15.76338    0.00000
  126     15.82555    0.00000
  127     15.84474    0.00000
  128     15.89351    0.00000
  129     15.96840    0.00000
  130     16.03785    0.00000
  131     16.17823    0.00000
  132     16.21632    0.00000
  133     16.32827    0.00000
  134     16.34338    0.00000
  135     16.44445    0.00000

Timing:                              incl.     excl.
-----------------------------------------------------------
Hamiltonian:                         2.419     0.000   0.0% |
 Atomic:                             1.405     0.003   0.0% |
  XC Correction:                     1.403     1.403   0.3% |
 Calculate atomic Hamiltonians:      0.016     0.016   0.0% |
 Communicate:                        0.000     0.000   0.0% |
 Hartree integrate/restrict:         0.007     0.007   0.0% |
 Initialize Hamiltonian:             0.000     0.000   0.0% |
 Poisson:                            0.772     0.772   0.2% |
 XC 3D grid:                         0.216     0.216   0.0% |
 vbar:                               0.002     0.002   0.0% |
LCAO initialization:                 7.336     0.289   0.1% |
 LCAO eigensolver:                   1.149     0.000   0.0% |
  Calculate projections:             0.019     0.019   0.0% |
  DenseAtomicCorrection:             0.003     0.003   0.0% |
  Distribute overlap matrix:         0.000     0.000   0.0% |
  Orbital Layouts:                   0.020     0.020   0.0% |
  Potential matrix:                  1.106     1.106   0.2% |
 LCAO to grid:                       5.197     5.197   1.2% |
 Set positions (LCAO WFS):           0.702     0.000   0.0% |
  Basic WFS set positions:           0.001     0.001   0.0% |
  Basis functions set positions:     0.000     0.000   0.0% |
  TCI: Calculate S, T, P:            0.701     0.701   0.2% |
SCF-cycle:                         432.879     0.067   0.0% |
 Davidson:                         284.521    81.831  18.5% |------|
  Apply hamiltonian:                 9.934     9.934   2.2% ||
  Subspace diag:                    69.283     0.013   0.0% |
   calc_h_matrix:                   29.355    19.615   4.4% |-|
    Apply hamiltonian:               9.740     9.740   2.2% ||
   diagonalize:                      0.419     0.419   0.1% |
   rotate_psi:                      39.496    39.496   8.9% |---|
  calc. matrices:                   82.306    72.163  16.3% |------|
   Apply hamiltonian:               10.144    10.144   2.3% ||
  diagonalize:                       1.555     1.555   0.4% |
  rotate_psi:                       39.612    39.612   8.9% |---|
 Density:                            2.831     0.002   0.0% |
  Atomic density matrices:           0.255     0.255   0.1% |
  Mix:                               1.800     1.800   0.4% |
  Multipole moments:                 0.058     0.058   0.0% |
  Pseudo density:                    0.717     0.716   0.2% |
   Symmetrize density:               0.001     0.001   0.0% |
 Hamiltonian:                      144.654     0.009   0.0% |
  Atomic:                           98.984     0.234   0.1% |
   XC Correction:                   98.750    98.750  22.3% |--------|
  Calculate atomic Hamiltonians:     1.103     1.103   0.2% |
  Communicate:                       0.001     0.001   0.0% |
  Hartree integrate/restrict:        0.543     0.543   0.1% |
  Poisson:                          23.525    23.525   5.3% |-|
  XC 3D grid:                       20.284    20.284   4.6% |-|
  vbar:                              0.205     0.205   0.0% |
 Orthonormalize:                     0.804     0.000   0.0% |
  calc_s_matrix:                     0.154     0.154   0.0% |
  inverse-cholesky:                  0.001     0.001   0.0% |
  projections:                       0.393     0.393   0.1% |
  rotate_psi_s:                      0.256     0.256   0.1% |
Set symmetry:                        0.001     0.001   0.0% |
Other:                               0.856     0.856   0.2% |
-----------------------------------------------------------
Total:                                       443.491 100.0%

Memory usage: 357.29 MiB
Date: Tue Mar 26 21:04:05 2019
