
  ___ ___ ___ _ _ _  
 |   |   |_  | | | | 
 | | | | | . | | | | 
 |__ |  _|___|_____|  1.4.0
 |___|_|             

User:   murakami@tssm1.eng.shizuoka.ac.jp
Date:   Tue Mar 26 19:05:08 2019
Arch:   x86_64
Pid:    31289
Python: 3.6.5
gpaw:   /home/murakami/.local/lib/python3.6/site-packages/gpaw
_gpaw:  /home/murakami/.local/lib/python3.6/site-packages/
        _gpaw.cpython-36m-x86_64-linux-gnu.so
ase:    /home/murakami/.local/lib/python3.6/site-packages/ase (version 3.16.2)
numpy:  /home/murakami/.local/lib/python3.6/site-packages/numpy (version 1.15.2)
scipy:  /home/murakami/.local/lib/python3.6/site-packages/scipy (version 1.1.0)
units:  Angstrom and eV
cores:  1

Input parameters:
  kpts: {size: (1, 1, 1)}
  maxiter: 300
  xc: PBE

System changes: positions, numbers, cell, pbc, initial_charges, initial_magmoms 

Initialize ...

Fe-setup:
  name: Iron
  id: 37abbd8d6c3c35915a9b583b742da910
  Z: 26
  valence: 8
  core: 18
  charge: 0.0
  file: /home/murakami/Public/gpaw-setups-0.9.20000/Fe.PBE.gz
  cutoffs: 1.06(comp), 2.06(filt), 2.67(core), lmax=2
  valence states:
                energy  radius
    4s(2.00)    -5.291   1.164
    4p(0.00)    -1.326   1.058
    3d(6.00)    -7.505   1.058
    *s          21.920   1.164
    *p          25.885   1.058
    *d          19.706   1.058

  Using partial waves for Fe as LCAO basis

O-setup:
  name: Oxygen
  id: 32ecd46bf208036f09c70b0ec9a88b78
  Z: 8
  valence: 6
  core: 2
  charge: 0.0
  file: /home/murakami/Public/gpaw-setups-0.9.20000/O.PBE.gz
  cutoffs: 0.67(comp), 1.17(filt), 0.83(core), lmax=2
  valence states:
                energy  radius
    2s(2.00)   -23.961   0.688
    2p(4.00)    -9.029   0.598
    *s           3.251   0.688
    *p          18.182   0.598
    *d           0.000   0.619

  Using partial waves for O as LCAO basis

F-setup:
  name: Fluorine
  id: 9cd46ba2a61e170ad72278be75b55cc0
  Z: 9
  valence: 7
  core: 2
  charge: 0.0
  file: /home/murakami/Public/gpaw-setups-0.9.20000/F.PBE.gz
  cutoffs: 0.64(comp), 1.14(filt), 0.74(core), lmax=2
  valence states:
                energy  radius
    2s(2.00)   -29.898   0.635
    2p(5.00)   -11.110   0.635
    *s          -2.687   0.635
    *p          16.102   0.635
    *d           0.000   0.635

  Using partial waves for F as LCAO basis

Reference energy: -319034.472395

Spin-paired calculation

Occupation numbers:
  Fermi-Dirac: width=0.1000 eV

Convergence criteria:
  Maximum total energy change: 0.0005 eV / electron
  Maximum integral of absolute density change: 0.0001 electrons
  Maximum integral of absolute eigenstate change: 4e-08 eV^2
  Maximum number of iterations: 300

Symmetries present (total): 1

  ( 1  0  0)
  ( 0  1  0)
  ( 0  0  1)

1 k-point (Gamma)
1 k-point in the irreducible part of the Brillouin zone
       k-points in crystal coordinates                weights
   0:     0.00000000    0.00000000    0.00000000          1/1

Wave functions: Uniform real-space grid
  Kinetic energy operator: 8*3+1=25 point O(h^6) finite-difference Laplacian
  ScaLapack parameters: grid=1x1, blocksize=None 

Eigensolver
   Davidson(niter=1, smin=None, normalize=True) 

Densities:
  Coarse grid: 28*24*52 grid
  Fine grid: 56*48*104 grid
  Total Charge: 0.000000 

Density mixing:
  Method: separate
  Backend: pulay
  Linear mixing parameter: 0.05
  Mixing with 5 old densities
  Damping of long wave oscillations: 50 

Hamiltonian:
  XC and Coulomb potentials evaluated on a 56*48*104 grid
  Using the PBE Exchange-Correlation functional
  Interpolation: tri-quintic (5. degree polynomial)
  Poisson solver: Jacobi solver with 4 multi-grid levels
    Coarsest grid: 7 x 6 x 13 points
    Stencil: 8*3+1=25 point O(h^6) finite-difference Laplacian
    Max iterations: 1000
    Tolerance: 2.000000e-10 

Memory estimate:
  Process memory now: 337.94 MiB
  Calculator: 140.46 MiB
    Density: 46.49 MiB
      Arrays: 6.93 MiB
      Localized functions: 36.90 MiB
      Mixer: 2.67 MiB
    Hamiltonian: 12.49 MiB
      Arrays: 4.53 MiB
      XC: 0.00 MiB
      Poisson: 5.17 MiB
      vbar: 2.79 MiB
    Wavefunctions: 81.47 MiB
      Arrays psit_nG: 36.26 MiB
      Eigensolver: 39.01 MiB
      Projections: 0.37 MiB
      Projectors: 5.84 MiB

Total number of cores used: 1

Number of atoms: 24
Number of atomic orbitals: 136
Number of bands in calculation: 136
Bands to converge: occupied states only
Number of valence electrons: 174

... initialized

Initializing position-dependent things.

Density initialized from atomic densities
Creating initial wave functions:
  136 bands from LCAO basis set

                                 
                                 
                                 
                                 
                Fe               
                     O           
                      Fe         
          FF   F    Fe           
                      F          
           Fe                    
           F       F             
              F        Fe        
               Fe                
                                 
             FeF FO   F          
                                 
       F          Fe             
            F     F              
                                 
                                 
                                 
                                 
                                 

Positions:
   0 Fe     1.417810    1.189211    7.987527    ( 0.0000,  0.0000,  0.0000)
   1 Fe     1.417089    3.596231    2.484800    ( 0.0000,  0.0000,  0.0000)
   2 Fe     2.953890    1.172318    5.021961    ( 0.0000,  0.0000,  0.0000)
   3 Fe     2.954603    3.613124   10.463944    ( 0.0000,  0.0000,  0.0000)
   4 Fe     4.323764    1.108045    2.287094    ( 0.0000,  0.0000,  0.0000)
   5 Fe     4.324477    3.678689    7.729077    ( 0.0000,  0.0000,  0.0000)
   6 Fe     5.682615    1.155072   10.063461    ( 0.0000,  0.0000,  0.0000)
   7 Fe     5.681888    3.630370    4.522314    ( 0.0000,  0.0000,  0.0000)
   8 O      4.466421    0.279843    3.926077    ( 0.0000,  0.0000,  0.0000)
   9 O      4.467135    4.505599    9.368060    ( 0.0000,  0.0000,  0.0000)
  10 F      0.078843    0.275431    1.978610    ( 0.0000,  0.0000,  0.0000)
  11 F      0.079556    4.510011    7.420593    ( 0.0000,  0.0000,  0.0000)
  12 F      1.275617    2.150774    6.036975    ( 0.0000,  0.0000,  0.0000)
  13 F      1.274903    2.634668    0.594992    ( 0.0000,  0.0000,  0.0000)
  14 F      1.602974    0.247632    9.814751    ( 0.0000,  0.0000,  0.0000)
  15 F      1.602260    4.535680    4.372768    ( 0.0000,  0.0000,  0.0000)
  16 F      2.764447    2.170342    3.056782    ( 0.0000,  0.0000,  0.0000)
  17 F      2.778359    2.615100    8.496947    ( 0.0000,  0.0000,  0.0000)
  18 F      2.998186    0.170362    6.924657    ( 0.0000,  0.0000,  0.0000)
  19 F      2.997473    4.615080    1.482674    ( 0.0000,  0.0000,  0.0000)
  20 F      4.143488    2.120047    0.420612    ( 0.0000,  0.0000,  0.0000)
  21 F      4.144202    2.665395    5.862595    ( 0.0000,  0.0000,  0.0000)
  22 F      5.584702    2.184578    8.151270    ( 0.0000,  0.0000,  0.0000)
  23 F      5.574387    2.600864    2.710610    ( 0.0000,  0.0000,  0.0000)

Unit cell:
           periodic     x           y           z      points  spacing
  1. axis:    yes    5.735919    0.000000   -0.790267    28     0.2049
  2. axis:    yes    0.000000    4.785442    0.000000    24     0.1994
  3. axis:    yes    0.001427    0.000000   10.883966    52     0.2074

  Lengths:   5.790103   4.785442  10.883966
  Angles:   90.000000  97.837035  90.000000

Effective grid spacing dv^(1/3) = 0.2045

                     log10-error:    total        iterations:
           time      wfs    density  energy       fermi  poisson
iter:   1  19:05:21  +1.56   +inf  -150.102957    3      17     
iter:   2  19:05:24  +0.21   +inf  -150.748362    3             
iter:   3  19:05:27  -0.39   +inf  -150.933742    2             
iter:   4  19:05:31  -0.63  -1.14  -149.197407    3      8      
iter:   5  19:05:36  -0.39  -1.18  -157.370246    4      13     
iter:   6  19:05:41  -0.31  -1.19  -146.643528    3      13     
iter:   7  19:05:46  -0.70  -1.40  -145.971348    3      11     
iter:   8  19:05:51  -1.48  -1.43  -145.914177    3      11     
iter:   9  19:05:56  -1.46  -1.43  -146.424998    4      12     
iter:  10  19:06:00  -1.45  -1.42  -145.809131    3      12     
iter:  11  19:06:05  -1.53  -1.46  -146.345832    4      13     
iter:  12  19:06:10  -1.50  -1.44  -145.715203    3      13     
iter:  13  19:06:15  -1.84  -1.49  -145.591528    4      12     
iter:  14  19:06:20  -1.42  -1.53  -145.729125    4      11     
iter:  15  19:06:25  -1.24  -1.60  -147.357264    3      13     
iter:  16  19:06:30  -1.21  -1.52  -146.865277    3      13     
iter:  17  19:06:34  -1.30  -1.61  -146.266568    3      13     
iter:  18  19:06:39  -1.18  -1.66  -147.978277    3      14     
iter:  19  19:06:44  -1.34  -1.49  -145.689669    3      14     
iter:  20  19:06:49  -1.93  -1.74  -145.412747    3      9      
iter:  21  19:06:54  -2.62  -1.83  -145.378591    2      8      
iter:  22  19:06:58  -2.90  -1.85  -145.428460    2      8      
iter:  23  19:07:03  -2.07  -1.85  -145.871556    3      12     
iter:  24  19:07:08  -1.75  -1.77  -146.012897    3      13     
iter:  25  19:07:13  -1.68  -1.77  -145.920882    3      12     
iter:  26  19:07:18  -1.74  -1.85  -145.739955    2      12     
iter:  27  19:07:23  -1.87  -1.93  -145.815257    3      11     
iter:  28  19:07:27  -2.13  -1.89  -145.414554    3      11     
iter:  29  19:07:32  -3.09  -2.04  -145.428200    3      6      
iter:  30  19:07:37  -2.44  -2.05  -145.661647    3      11     
iter:  31  19:07:42  -2.21  -1.93  -145.546102    3      11     
iter:  32  19:07:46  -2.28  -2.03  -145.574827    3      10     
iter:  33  19:07:51  -2.29  -2.14  -145.485416    3      10     
iter:  34  19:07:56  -2.22  -2.33  -145.651338    3      11     
iter:  35  19:08:01  -2.46  -2.05  -145.451205    3      10     
iter:  36  19:08:05  -3.04  -2.42  -145.443599    3      8      
iter:  37  19:08:10  -3.04  -2.50  -145.422751    2      9      
iter:  38  19:08:15  -3.41  -2.48  -145.421909    2      6      
iter:  39  19:08:19  -3.75  -2.57  -145.419588    2      6      
iter:  40  19:08:24  -3.04  -2.69  -145.490703    3      9      
iter:  41  19:08:29  -2.92  -2.38  -145.422213    2      10     
iter:  42  19:08:33  -3.27  -2.72  -145.419596    3      7      
iter:  43  19:08:38  -3.42  -2.80  -145.433012    2      8      
iter:  44  19:08:43  -3.42  -2.76  -145.416757    2      5      
iter:  45  19:08:47  -4.10  -2.90  -145.414963    2      5      
iter:  46  19:08:52  -4.75  -3.05  -145.413810    2      4      
iter:  47  19:08:56  -4.60  -3.06  -145.415149    2      4      
iter:  48  19:09:01  -4.51  -3.06  -145.417992    2      5      
iter:  49  19:09:05  -4.08  -3.03  -145.416127    2      6      
iter:  50  19:09:10  -4.34  -3.31  -145.414403    2      4      
iter:  51  19:09:14  -4.26  -3.55  -145.417104    2      5      
iter:  52  19:09:19  -4.38  -3.20  -145.414286    2      5      
iter:  53  19:09:24  -5.25  -3.85  -145.414394    2      3      
iter:  54  19:09:28  -5.38  -3.82  -145.414241    2      3      
iter:  55  19:09:33  -5.50  -3.86  -145.414241    2      3      
iter:  56  19:09:37  -5.54  -3.92  -145.414147    2      3      
iter:  57  19:09:42  -5.54  -3.91  -145.414462    2      3      
iter:  58  19:09:46  -5.67  -3.85  -145.414535    2      3      
iter:  59  19:09:50  -5.87  -4.01  -145.414557    2      3      
iter:  60  19:09:55  -5.97  -3.99  -145.414336    2      3      
iter:  61  19:09:59  -6.19  -4.05  -145.414321    2      2      
iter:  62  19:10:04  -6.35  -4.13  -145.414395    2      2      
iter:  63  19:10:08  -6.24  -4.15  -145.414387    2      3      
iter:  64  19:10:13  -6.10  -4.18  -145.414775    2      2      
iter:  65  19:10:17  -5.94  -4.11  -145.414331    2      3      
iter:  66  19:10:22  -6.22  -4.07  -145.414527    2      3      
iter:  67  19:10:26  -6.22  -4.33  -145.415336    2      2      
iter:  68  19:10:30  -6.40  -4.25  -145.414321    2      2      
iter:  69  19:10:35  -6.79  -4.32  -145.414532    2      2      
iter:  70  19:10:39  -7.01  -4.50  -145.414607    2      2      
iter:  71  19:10:44  -6.80  -4.47  -145.414329    2      2      
iter:  72  19:10:48  -6.75  -4.51  -145.415043    2      2      
iter:  73  19:10:53  -7.04  -4.54  -145.414661    2      2      
iter:  74  19:10:57  -6.94  -4.55  -145.414538    2      2      
iter:  75  19:11:02  -6.96  -4.59  -145.414943    2      2      
iter:  76  19:11:06  -7.54  -4.70  -145.414877    2      1      

Converged after 76 iterations.

Dipole moment: (-1.203091, 2.951187, -2.011886) |e|*Ang

Energy contributions relative to reference atoms: (reference = -319034.472395)

Kinetic:       +119.283801
Potential:     -133.009929
External:        +0.000000
XC:            -138.688306
Entropy (-ST):   -1.215826
Local:           +7.607470
--------------------------
Free energy:   -146.022790
Extrapolated:  -145.414877

Fermi level: 3.68428

 Band  Eigenvalues  Occupancy
    0    -20.75359    2.00000
    1    -20.59509    2.00000
    2    -20.45064    2.00000
    3    -20.35231    2.00000
    4    -20.32390    2.00000
    5    -20.28057    2.00000
    6    -20.27205    2.00000
    7    -20.19010    2.00000
    8    -20.17430    2.00000
    9    -20.05865    2.00000
   10    -19.99696    2.00000
   11    -19.86659    2.00000
   12    -19.75083    2.00000
   13    -19.66311    2.00000
   14    -14.66700    2.00000
   15    -14.58371    2.00000
   16     -4.22156    2.00000
   17     -3.85324    2.00000
   18     -3.46026    2.00000
   19     -3.31544    2.00000
   20     -3.28497    2.00000
   21     -3.10460    2.00000
   22     -3.08283    2.00000
   23     -3.01409    2.00000
   24     -2.87913    2.00000
   25     -2.84014    2.00000
   26     -2.79229    2.00000
   27     -2.68431    2.00000
   28     -2.64861    2.00000
   29     -2.59053    2.00000
   30     -2.58743    2.00000
   31     -2.48337    2.00000
   32     -2.42491    2.00000
   33     -2.36725    2.00000
   34     -2.33772    2.00000
   35     -2.30747    2.00000
   36     -2.25311    2.00000
   37     -2.20308    2.00000
   38     -2.09845    2.00000
   39     -2.05582    2.00000
   40     -2.03590    2.00000
   41     -1.98534    2.00000
   42     -1.96049    2.00000
   43     -1.89252    2.00000
   44     -1.75642    2.00000
   45     -1.61495    2.00000
   46     -1.50510    2.00000
   47     -1.45053    2.00000
   48     -1.44185    2.00000
   49     -1.33089    2.00000
   50     -1.13950    2.00000
   51     -1.08909    2.00000
   52     -1.04611    2.00000
   53     -0.98584    2.00000
   54     -0.85044    2.00000
   55     -0.79926    2.00000
   56     -0.73419    2.00000
   57     -0.69437    2.00000
   58     -0.55557    2.00000
   59     -0.46694    2.00000
   60     -0.42096    2.00000
   61     -0.29131    2.00000
   62      0.36573    2.00000
   63      0.42912    2.00000
   64      2.89802    1.99923
   65      2.91921    1.99905
   66      2.98230    1.99821
   67      2.98872    1.99810
   68      3.01299    1.99757
   69      3.02123    1.99736
   70      3.06884    1.99576
   71      3.10387    1.99399
   72      3.13403    1.99188
   73      3.14698    1.99076
   74      3.18594    1.98639
   75      3.21262    1.98227
   76      3.25775    1.97229
   77      3.28459    1.96392
   78      3.32854    1.94456
   79      3.36672    1.91982
   80      3.38306    1.90625
   81      3.38667    1.90297
   82      3.43566    1.84634
   83      3.47486    1.78069
   84      3.55486    1.56974
   85      3.58395    1.46343
   86      3.61229    1.34519
   87      3.70824    0.88078
   88      3.71817    0.83219
   89      3.84947    0.32171
   90      3.94073    0.14292
   91      3.94956    0.13164
   92      4.01860    0.06824
   93      4.07334    0.04005
   94      4.15458    0.01797
   95      4.16310    0.01652
   96      4.40202    0.00153
   97      4.48896    0.00064
   98      4.85036    0.00002
   99      4.94785    0.00001
  100      4.99798    0.00000
  101      5.02227    0.00000
  102      5.11886    0.00000
  103      5.28421    0.00000
  104      6.20524    0.00000
  105      7.98801    0.00000
  106      8.45869    0.00000
  107     10.98940    0.00000
  108     11.31747    0.00000
  109     11.34451    0.00000
  110     11.48299    0.00000
  111     11.73140    0.00000
  112     11.92547    0.00000
  113     12.02982    0.00000
  114     12.18938    0.00000
  115     12.85002    0.00000
  116     13.19645    0.00000
  117     13.20546    0.00000
  118     13.63153    0.00000
  119     13.89679    0.00000
  120     14.56678    0.00000
  121     14.96054    0.00000
  122     15.06254    0.00000
  123     15.08854    0.00000
  124     15.33293    0.00000
  125     15.75189    0.00000
  126     15.81154    0.00000
  127     15.84401    0.00000
  128     15.85809    0.00000
  129     15.99130    0.00000
  130     16.04375    0.00000
  131     16.18596    0.00000
  132     16.20891    0.00000
  133     16.29815    0.00000
  134     16.33506    0.00000
  135     16.51193    0.00000

Timing:                              incl.     excl.
-----------------------------------------------------------
Hamiltonian:                         1.992     0.000   0.0% |
 Atomic:                             1.079     0.003   0.0% |
  XC Correction:                     1.076     1.076   0.3% |
 Calculate atomic Hamiltonians:      0.014     0.014   0.0% |
 Communicate:                        0.000     0.000   0.0% |
 Hartree integrate/restrict:         0.008     0.008   0.0% |
 Initialize Hamiltonian:             0.000     0.000   0.0% |
 Poisson:                            0.672     0.672   0.2% |
 XC 3D grid:                         0.216     0.216   0.1% |
 vbar:                               0.002     0.002   0.0% |
LCAO initialization:                 6.115     0.229   0.1% |
 LCAO eigensolver:                   0.960     0.000   0.0% |
  Calculate projections:             0.003     0.003   0.0% |
  DenseAtomicCorrection:             0.003     0.003   0.0% |
  Distribute overlap matrix:         0.000     0.000   0.0% |
  Orbital Layouts:                   0.009     0.009   0.0% |
  Potential matrix:                  0.945     0.945   0.3% |
 LCAO to grid:                       4.284     4.284   1.2% |
 Set positions (LCAO WFS):           0.642     0.000   0.0% |
  Basic WFS set positions:           0.001     0.001   0.0% |
  Basis functions set positions:     0.000     0.000   0.0% |
  TCI: Calculate S, T, P:            0.641     0.641   0.2% |
SCF-cycle:                         348.626     0.053   0.0% |
 Davidson:                         227.508    62.237  17.4% |------|
  Apply hamiltonian:                 8.238     8.238   2.3% ||
  Subspace diag:                    56.645     0.012   0.0% |
   calc_h_matrix:                   24.228    15.763   4.4% |-|
    Apply hamiltonian:               8.465     8.465   2.4% ||
   diagonalize:                      0.310     0.310   0.1% |
   rotate_psi:                      32.095    32.095   9.0% |---|
  calc. matrices:                   66.669    58.242  16.3% |------|
   Apply hamiltonian:                8.427     8.427   2.4% ||
  diagonalize:                       1.295     1.295   0.4% |
  rotate_psi:                       32.424    32.424   9.1% |---|
 Density:                            2.378     0.002   0.0% |
  Atomic density matrices:           0.178     0.178   0.0% |
  Mix:                               1.559     1.559   0.4% |
  Multipole moments:                 0.043     0.043   0.0% |
  Pseudo density:                    0.595     0.594   0.2% |
   Symmetrize density:               0.001     0.001   0.0% |
 Hamiltonian:                      118.052     0.008   0.0% |
  Atomic:                           79.222     0.189   0.1% |
   XC Correction:                   79.034    79.034  22.1% |--------|
  Calculate atomic Hamiltonians:     0.974     0.974   0.3% |
  Communicate:                       0.001     0.001   0.0% |
  Hartree integrate/restrict:        0.468     0.468   0.1% |
  Poisson:                          20.915    20.915   5.8% |-|
  XC 3D grid:                       16.284    16.284   4.6% |-|
  vbar:                              0.180     0.180   0.1% |
 Orthonormalize:                     0.635     0.000   0.0% |
  calc_s_matrix:                     0.158     0.158   0.0% |
  inverse-cholesky:                  0.001     0.001   0.0% |
  projections:                       0.253     0.253   0.1% |
  rotate_psi_s:                      0.222     0.222   0.1% |
Set symmetry:                        0.001     0.001   0.0% |
Other:                               0.845     0.845   0.2% |
-----------------------------------------------------------
Total:                                       357.578 100.0%

Memory usage: 337.94 MiB
Date: Tue Mar 26 19:11:06 2019
