
  ___ ___ ___ _ _ _  
 |   |   |_  | | | | 
 | | | | | . | | | | 
 |__ |  _|___|_____|  1.4.0
 |___|_|             

User:   murakami@tssm1.eng.shizuoka.ac.jp
Date:   Thu Mar 28 17:05:40 2019
Arch:   x86_64
Pid:    31289
Python: 3.6.5
gpaw:   /home/murakami/.local/lib/python3.6/site-packages/gpaw
_gpaw:  /home/murakami/.local/lib/python3.6/site-packages/
        _gpaw.cpython-36m-x86_64-linux-gnu.so
ase:    /home/murakami/.local/lib/python3.6/site-packages/ase (version 3.16.2)
numpy:  /home/murakami/.local/lib/python3.6/site-packages/numpy (version 1.15.2)
scipy:  /home/murakami/.local/lib/python3.6/site-packages/scipy (version 1.1.0)
units:  Angstrom and eV
cores:  1

Input parameters:
  kpts: {size: (1, 1, 1)}
  maxiter: 300
  xc: PBE

System changes: positions, numbers, cell, pbc, initial_charges, initial_magmoms 

Initialize ...

Fe-setup:
  name: Iron
  id: 37abbd8d6c3c35915a9b583b742da910
  Z: 26
  valence: 8
  core: 18
  charge: 0.0
  file: /home/murakami/Public/gpaw-setups-0.9.20000/Fe.PBE.gz
  cutoffs: 1.06(comp), 2.06(filt), 2.67(core), lmax=2
  valence states:
                energy  radius
    4s(2.00)    -5.291   1.164
    4p(0.00)    -1.326   1.058
    3d(6.00)    -7.505   1.058
    *s          21.920   1.164
    *p          25.885   1.058
    *d          19.706   1.058

  Using partial waves for Fe as LCAO basis

O-setup:
  name: Oxygen
  id: 32ecd46bf208036f09c70b0ec9a88b78
  Z: 8
  valence: 6
  core: 2
  charge: 0.0
  file: /home/murakami/Public/gpaw-setups-0.9.20000/O.PBE.gz
  cutoffs: 0.67(comp), 1.17(filt), 0.83(core), lmax=2
  valence states:
                energy  radius
    2s(2.00)   -23.961   0.688
    2p(4.00)    -9.029   0.598
    *s           3.251   0.688
    *p          18.182   0.598
    *d           0.000   0.619

  Using partial waves for O as LCAO basis

F-setup:
  name: Fluorine
  id: 9cd46ba2a61e170ad72278be75b55cc0
  Z: 9
  valence: 7
  core: 2
  charge: 0.0
  file: /home/murakami/Public/gpaw-setups-0.9.20000/F.PBE.gz
  cutoffs: 0.64(comp), 1.14(filt), 0.74(core), lmax=2
  valence states:
                energy  radius
    2s(2.00)   -29.898   0.635
    2p(5.00)   -11.110   0.635
    *s          -2.687   0.635
    *p          16.102   0.635
    *d           0.000   0.635

  Using partial waves for F as LCAO basis

Reference energy: -648925.267931

Spin-paired calculation

Occupation numbers:
  Fermi-Dirac: width=0.1000 eV

Convergence criteria:
  Maximum total energy change: 0.0005 eV / electron
  Maximum integral of absolute density change: 0.0001 electrons
  Maximum integral of absolute eigenstate change: 4e-08 eV^2
  Maximum number of iterations: 300

Symmetries present (total): 1

  ( 1  0  0)
  ( 0  1  0)
  ( 0  0  1)

1 k-point (Gamma)
1 k-point in the irreducible part of the Brillouin zone
       k-points in crystal coordinates                weights
   0:     0.00000000    0.00000000    0.00000000          1/1

Wave functions: Uniform real-space grid
  Kinetic energy operator: 8*3+1=25 point O(h^6) finite-difference Laplacian
  ScaLapack parameters: grid=1x1, blocksize=None 

Eigensolver
   Davidson(niter=1, smin=None, normalize=True) 

Densities:
  Coarse grid: 48*28*76 grid
  Fine grid: 96*56*152 grid
  Total Charge: 0.000000 

Density mixing:
  Method: separate
  Backend: pulay
  Linear mixing parameter: 0.05
  Mixing with 5 old densities
  Damping of long wave oscillations: 50 

Hamiltonian:
  XC and Coulomb potentials evaluated on a 96*56*152 grid
  Using the PBE Exchange-Correlation functional
  Interpolation: tri-quintic (5. degree polynomial)
  Poisson solver: Jacobi solver with 4 multi-grid levels
    Coarsest grid: 12 x 7 x 19 points
    Stencil: 8*3+1=25 point O(h^6) finite-difference Laplacian
    Max iterations: 1000
    Tolerance: 2.000000e-10 

Memory estimate:
  Process memory now: 1099.94 MiB
  Calculator: 625.81 MiB
    Density: 116.13 MiB
      Arrays: 20.26 MiB
      Localized functions: 88.08 MiB
      Mixer: 7.79 MiB
    Hamiltonian: 35.03 MiB
      Arrays: 13.25 MiB
      XC: 0.00 MiB
      Poisson: 15.10 MiB
      vbar: 6.68 MiB
    Wavefunctions: 474.64 MiB
      Arrays psit_nG: 224.44 MiB
      Eigensolver: 234.67 MiB
      Projections: 1.66 MiB
      Projectors: 13.87 MiB

Total number of cores used: 1

Number of atoms: 52
Number of atomic orbitals: 288
Number of bands in calculation: 288
Bands to converge: occupied states only
Number of valence electrons: 376

... initialized

Initializing position-dependent things.

Density initialized from atomic densities
Creating initial wave functions:
  288 bands from LCAO basis set

                                           
                                           
                                           
                                           
                          Fe               
              F       F                    
             Fe              O             
               O        F       F          
                            Fe             
         F       F       F                 
               Fe                          
            FFe    F       F               
              F        F     F             
         F     F       Fe                  
                        F   Fe             
             Fe  O        F     F          
               Fe Fe                       
            F      F   Fe  O               
              F       F     Fe             
                          Fe               
         F   FeF        F                  
                         F                 
          F     F Fe                       
            F                              
                    F     F Fe             
                                           
                                           
                                           
                                           
                                           

Positions:
   0 Fe     1.542848    2.593853    2.677597    ( 0.0000,  0.0000,  0.0000)
   1 Fe     1.542848    2.765614   10.155423    ( 0.0000,  0.0000,  0.0000)
   2 Fe     6.243444    5.273587    2.645344    ( 0.0000,  0.0000,  0.0000)
   3 Fe     6.243444    0.085880   10.113358    ( 0.0000,  0.0000,  0.0000)
   4 Fe     1.648330    2.534235   14.537576    ( 0.0000,  0.0000,  0.0000)
   5 Fe     1.648330    2.866918    7.059751    ( 0.0000,  0.0000,  0.0000)
   6 Fe     6.348925    5.213968   14.495512    ( 0.0000,  0.0000,  0.0000)
   7 Fe     6.348925    0.145499    7.017686    ( 0.0000,  0.0000,  0.0000)
   8 Fe     3.117708    0.157643   12.271643    ( 0.0000,  0.0000,  0.0000)
   9 Fe     3.117708    5.201824    4.793817    ( 0.0000,  0.0000,  0.0000)
  10 Fe     7.818303    2.837377   12.229578    ( 0.0000,  0.0000,  0.0000)
  11 Fe     7.818303    2.522090    4.680399    ( 0.0000,  0.0000,  0.0000)
  12 Fe     3.136416    0.023153    7.705724    ( 0.0000,  0.0000,  0.0000)
  13 Fe     3.136416    5.336314    0.227899    ( 0.0000,  0.0000,  0.0000)
  14 Fe     7.837011    2.702886    7.663660    ( 0.0000,  0.0000,  0.0000)
  15 Fe     7.837011    2.656581    0.185834    ( 0.0000,  0.0000,  0.0000)
  16 O      2.907450    1.445915   13.814659    ( 0.0000,  0.0000,  0.0000)
  17 O      2.907450    3.926303    6.336834    ( 0.0000,  0.0000,  0.0000)
  18 O      7.608045    4.112898   13.772595    ( 0.0000,  0.0000,  0.0000)
  19 O      7.608045    1.246569    6.294769    ( 0.0000,  0.0000,  0.0000)
  20 F      0.036298    1.976797    3.648091    ( 0.0000,  0.0000,  0.0000)
  21 F      0.036298    3.355332   11.125917    ( 0.0000,  0.0000,  0.0000)
  22 F      4.736893    4.656530    3.606027    ( 0.0000,  0.0000,  0.0000)
  23 F      4.736893    0.702937   11.083852    ( 0.0000,  0.0000,  0.0000)
  24 F      0.243622    2.119010    8.659520    ( 0.0000,  0.0000,  0.0000)
  25 F      0.243622    3.240457    1.181694    ( 0.0000,  0.0000,  0.0000)
  26 F      4.944218    4.803503    8.617455    ( 0.0000,  0.0000,  0.0000)
  27 F      4.944218    0.560724    1.139630    ( 0.0000,  0.0000,  0.0000)
  28 F      1.655719    1.147837    1.234055    ( 0.0000,  0.0000,  0.0000)
  29 F      1.655719    4.211630    8.711881    ( 0.0000,  0.0000,  0.0000)
  30 F      6.356314    3.827571    1.191991    ( 0.0000,  0.0000,  0.0000)
  31 F      6.262368    1.531896    8.670657    ( 0.0000,  0.0000,  0.0000)
  32 F      1.620164    1.090357   10.938631    ( 0.0000,  0.0000,  0.0000)
  33 F      1.706072    4.269110    3.565923    ( 0.0000,  0.0000,  0.0000)
  34 F      6.406667    3.720472   11.001684    ( 0.0000,  0.0000,  0.0000)
  35 F      6.428234    1.589377    3.523666    ( 0.0000,  0.0000,  0.0000)
  36 F      1.776853    1.081862    6.320255    ( 0.0000,  0.0000,  0.0000)
  37 F      1.776853    4.277605   13.727924    ( 0.0000,  0.0000,  0.0000)
  38 F      6.558731    3.761596    6.277463    ( 0.0000,  0.0000,  0.0000)
  39 F      6.477449    1.639868   13.756016    ( 0.0000,  0.0000,  0.0000)
  40 F      2.759033    1.812357    8.623789    ( 0.0000,  0.0000,  0.0000)
  41 F      2.759033    3.500439    1.145964    ( 0.0000,  0.0000,  0.0000)
  42 F      7.459629    4.572965    8.581725    ( 0.0000,  0.0000,  0.0000)
  43 F      7.459629    0.820706    1.075244    ( 0.0000,  0.0000,  0.0000)
  44 F      2.849557    1.637912    3.683786    ( 0.0000,  0.0000,  0.0000)
  45 F      2.849557    3.721555   11.161611    ( 0.0000,  0.0000,  0.0000)
  46 F      7.550153    4.317646    3.641721    ( 0.0000,  0.0000,  0.0000)
  47 F      7.550153    1.041821   11.119547    ( 0.0000,  0.0000,  0.0000)
  48 F      4.613296    0.721642    6.236964    ( 0.0000,  0.0000,  0.0000)
  49 F      4.613296    4.637825   13.675591    ( 0.0000,  0.0000,  0.0000)
  50 F      9.313892    3.401375    6.242220    ( 0.0000,  0.0000,  0.0000)
  51 F      9.313892    1.958092   13.720045    ( 0.0000,  0.0000,  0.0000)

Unit cell:
           periodic     x           y           z      points  spacing
  1. axis:    yes    9.401191    0.000000   -0.084129    48     0.1959
  2. axis:    yes    0.000000    5.359467    0.000000    28     0.1914
  3. axis:    yes    0.000000    0.000000   14.955651    76     0.1968

  Lengths:   9.401567   5.359467  14.955651
  Angles:   90.000000  90.512712  90.000000

Effective grid spacing dv^(1/3) = 0.1947

                     log10-error:    total        iterations:
           time      wfs    density  energy       fermi  poisson
iter:   1  17:06:40  +1.49   +inf  -311.438735    3      18     
iter:   2  17:07:08  +0.30   +inf  -313.004792    3             
iter:   3  17:07:36  -0.29   +inf  -313.432812    2             
iter:   4  17:08:09  -0.46  -1.13  -310.733722    3      15     
iter:   5  17:08:44  -0.44  -1.15  -323.927784    2      27     
iter:   6  17:09:20  -0.16  -1.12  -336.447348    36     34     
iter:   7  17:09:54  -0.25  -1.22  -316.648196    4      35     
iter:   8  17:10:29  -0.57  -1.26  -307.078239    4      32     
iter:   9  17:11:03  -0.84  -1.34  -307.156937    4      29     
iter:  10  17:11:36  -1.03  -1.34  -301.150636    4      24     
iter:  11  17:12:12  -1.56  -1.43  -301.743826    3      23     
iter:  12  17:12:46  -1.58  -1.43  -300.839961    3      25     
iter:  13  17:13:27  -1.81  -1.45  -302.156410    4      27     
iter:  14  17:14:00  -1.58  -1.43  -301.127061    2      26     
iter:  15  17:14:36  -1.38  -1.46  -306.920286    4      29     
iter:  16  17:15:10  -1.03  -1.39  -305.389732    4      31     
iter:  17  17:15:45  -1.33  -1.40  -303.326270    3      28     
iter:  18  17:16:20  -1.49  -1.45  -301.932264    4      29     
iter:  19  17:16:56  -1.85  -1.47  -300.318349    3      25     
iter:  20  17:17:30  -2.19  -1.53  -299.893663    3      20     
iter:  21  17:18:09  -1.74  -1.56  -304.995153    3      29     
iter:  22  17:18:47  -1.47  -1.46  -300.657915    4      30     
iter:  23  17:19:21  -1.83  -1.55  -301.521458    3      25     
iter:  24  17:19:55  -1.49  -1.54  -303.054081    3      24     
iter:  25  17:20:30  -1.58  -1.51  -302.451088    3      28     
iter:  26  17:21:04  -1.58  -1.53  -300.527452    4      28     
iter:  27  17:21:38  -1.80  -1.59  -302.026035    4      26     
iter:  28  17:22:12  -1.48  -1.56  -301.123648    3      26     
iter:  29  17:22:46  -1.86  -1.59  -300.566565    3      27     
iter:  30  17:23:19  -1.77  -1.62  -301.417600    3      14     
iter:  31  17:23:53  -1.74  -1.62  -301.156071    3      23     
iter:  32  17:24:28  -1.60  -1.65  -303.523667    4      24     
iter:  33  17:25:03  -1.51  -1.61  -300.933478    3      24     
iter:  34  17:25:37  -1.58  -1.65  -301.753653    3      25     
iter:  35  17:26:13  -1.88  -1.61  -300.602310    3      28     
iter:  36  17:26:47  -2.10  -1.69  -299.896392    3      25     
iter:  37  17:27:21  -2.08  -1.75  -300.480334    3      14     
iter:  38  17:27:55  -2.00  -1.73  -299.912827    3      17     
iter:  39  17:28:28  -2.40  -1.76  -299.857399    3      13     
iter:  40  17:29:03  -1.91  -1.77  -302.681380    3      27     
iter:  41  17:29:38  -1.69  -1.60  -302.825843    3      30     
iter:  42  17:30:14  -1.73  -1.60  -299.880990    4      28     
iter:  43  17:30:48  -2.20  -1.79  -300.120911    3      22     
iter:  44  17:31:23  -2.16  -1.79  -299.932598    3      22     
iter:  45  17:31:56  -2.61  -1.80  -299.633377    3      16     
iter:  46  17:32:30  -2.73  -1.85  -299.980401    3      16     
iter:  47  17:33:05  -2.07  -1.84  -301.405371    3      26     
iter:  48  17:33:40  -1.58  -1.72  -305.692033    3      30     
iter:  49  17:34:16  -1.57  -1.56  -300.919915    4      28     
iter:  50  17:34:51  -2.01  -1.76  -300.024665    3      23     
iter:  51  17:35:25  -2.15  -1.96  -300.077598    3      19     
iter:  52  17:35:59  -2.31  -1.89  -299.911497    3      18     
iter:  53  17:36:33  -2.02  -1.93  -301.827745    3      26     
iter:  54  17:37:08  -1.95  -1.71  -299.663700    3      26     
iter:  55  17:37:43  -2.50  -2.01  -300.097743    3      22     
iter:  56  17:38:18  -2.34  -1.92  -299.866533    3      22     
iter:  57  17:38:52  -2.38  -2.00  -299.929958    3      20     
iter:  58  17:39:26  -2.60  -1.95  -299.701502    3      17     
iter:  59  17:40:01  -2.08  -2.03  -302.679477    3      27     
iter:  60  17:40:36  -1.89  -1.66  -299.589446    4      27     
iter:  61  17:41:10  -2.77  -2.09  -299.650710    3      14     
iter:  62  17:41:44  -2.80  -2.08  -299.662737    2      17     
iter:  63  17:42:18  -2.62  -2.08  -299.939619    3      20     
iter:  64  17:42:53  -2.24  -2.05  -300.146582    3      20     
iter:  65  17:43:28  -1.99  -2.05  -302.783276    3      27     
iter:  66  17:44:03  -1.81  -1.71  -299.763985    4      27     
iter:  67  17:44:36  -2.45  -2.10  -299.756144    3      18     
iter:  68  17:45:09  -2.78  -2.18  -299.622513    3      19     
iter:  69  17:45:42  -3.07  -2.23  -299.610847    3      16     
iter:  70  17:46:14  -2.82  -2.27  -299.806546    3      18     
iter:  71  17:46:48  -2.28  -2.14  -300.825564    3      26     
iter:  72  17:47:23  -2.21  -1.91  -299.606280    3      24     
iter:  73  17:47:59  -2.94  -2.29  -299.615205    3      18     
iter:  74  17:48:32  -3.18  -2.28  -299.589399    2      17     
iter:  75  17:49:06  -3.25  -2.31  -299.585656    2      17     
iter:  76  17:49:41  -2.86  -2.32  -299.742588    2      18     
iter:  77  17:50:14  -2.51  -2.19  -300.277666    3      25     
iter:  78  17:50:48  -2.48  -1.99  -299.542791    3      23     
iter:  79  17:51:20  -3.27  -2.39  -299.557653    2      14     
iter:  80  17:51:52  -3.46  -2.37  -299.579917    2      17     
iter:  81  17:52:27  -3.47  -2.34  -299.540174    2      16     
iter:  82  17:53:00  -3.34  -2.41  -299.591810    1      15     
iter:  83  17:53:41  -2.74  -2.33  -300.075048    3      24     
iter:  84  17:54:22  -2.63  -2.05  -299.533779    3      23     
iter:  85  17:54:58  -3.43  -2.44  -299.529278    2      10     
iter:  86  17:55:30  -3.80  -2.46  -299.534163    2      12     
iter:  87  17:56:03  -3.72  -2.45  -299.539907    2      15     
iter:  88  17:56:36  -3.62  -2.44  -299.566905    3      15     
iter:  89  17:57:09  -3.02  -2.45  -299.693874    3      18     
iter:  90  17:57:42  -2.62  -2.33  -299.779143    3      17     
iter:  91  17:58:15  -2.81  -2.23  -299.571185    3      20     
iter:  92  17:58:49  -3.30  -2.42  -299.581573    3      17     
iter:  93  17:59:24  -3.48  -2.47  -299.539491    3      17     
iter:  94  17:59:56  -3.98  -2.56  -299.515167    2      11     
iter:  95  18:00:27  -3.97  -2.65  -299.530901    3      9      
iter:  96  18:00:59  -3.49  -2.61  -299.554481    2      10     
iter:  97  18:01:32  -3.05  -2.59  -299.788771    3      22     
iter:  98  18:02:06  -2.99  -2.21  -299.536160    3      21     
iter:  99  18:02:38  -3.36  -2.65  -299.529795    2      12     
iter: 100  18:03:16  -3.34  -2.67  -299.523003    3      8      
iter: 101  18:03:56  -3.85  -2.76  -299.547859    2      15     
iter: 102  18:04:35  -3.82  -2.62  -299.517746    2      14     
iter: 103  18:05:10  -3.97  -2.84  -299.528442    2      6      
iter: 104  18:05:42  -3.47  -2.85  -299.553521    3      15     
iter: 105  18:06:17  -3.45  -2.62  -299.564791    2      18     
iter: 106  18:06:50  -3.42  -2.57  -299.525998    3      18     
iter: 107  18:07:24  -3.58  -2.71  -299.525295    3      11     
iter: 108  18:08:03  -4.13  -2.84  -299.511762    2      12     
iter: 109  18:08:40  -4.22  -3.01  -299.516467    3      8      
iter: 110  18:09:21  -4.21  -2.93  -299.511152    2      7      
iter: 111  18:10:03  -4.07  -3.06  -299.534620    2      15     
iter: 112  18:10:51  -4.00  -2.71  -299.508792    2      15     
iter: 113  18:11:29  -4.63  -3.12  -299.512347    2      5      
iter: 114  18:12:06  -4.64  -3.09  -299.509428    2      5      
iter: 115  18:12:37  -4.83  -3.13  -299.511192    2      9      
iter: 116  18:13:10  -4.61  -3.04  -299.509669    2      9      
iter: 117  18:13:41  -4.38  -3.14  -299.515600    3      9      
iter: 118  18:14:13  -4.05  -3.06  -299.510531    3      11     
iter: 119  18:14:46  -4.36  -3.11  -299.517146    3      5      
iter: 120  18:15:22  -4.26  -3.13  -299.511665    3      9      
iter: 121  18:16:07  -4.55  -3.18  -299.508824    3      8      
iter: 122  18:16:49  -4.49  -3.39  -299.513343    2      10     
iter: 123  18:17:23  -4.48  -3.13  -299.513307    2      9      
iter: 124  18:18:04  -4.68  -3.33  -299.512327    2      9      
iter: 125  18:18:46  -5.03  -3.35  -299.509492    2      7      
iter: 126  18:19:24  -5.31  -3.53  -299.509774    2      4      
iter: 127  18:19:56  -5.02  -3.58  -299.508074    2      5      
iter: 128  18:20:28  -4.93  -3.42  -299.510407    2      5      
iter: 129  18:20:59  -5.30  -3.49  -299.510498    2      4      
iter: 130  18:21:31  -5.61  -3.58  -299.509613    2      3      
iter: 131  18:22:02  -5.53  -3.73  -299.508911    2      5      
iter: 132  18:22:34  -5.51  -3.55  -299.509324    2      3      
iter: 133  18:23:06  -5.86  -3.75  -299.508894    2      4      
iter: 134  18:23:37  -5.72  -3.66  -299.509551    2      3      
iter: 135  18:24:10  -6.10  -3.72  -299.509876    2      3      
iter: 136  18:24:43  -5.92  -3.73  -299.509213    2      3      
iter: 137  18:25:15  -6.28  -3.79  -299.509032    2      3      
iter: 138  18:25:46  -6.42  -3.79  -299.509205    2      3      
iter: 139  18:26:17  -5.98  -3.87  -299.509217    2      3      
iter: 140  18:26:49  -5.66  -3.76  -299.508881    2      4      
iter: 141  18:27:20  -5.81  -3.81  -299.509606    2      4      
iter: 142  18:27:52  -5.46  -3.99  -299.509798    2      6      
iter: 143  18:28:24  -5.50  -3.63  -299.509211    2      4      
iter: 144  18:28:55  -6.10  -3.94  -299.509397    2      3      
iter: 145  18:29:34  -6.89  -4.19  -299.509325    2      2      
iter: 146  18:30:19  -6.98  -4.47  -299.509474    2      3      
iter: 147  18:31:10  -7.01  -4.58  -299.509499    2      2      
iter: 148  18:31:51  -7.48  -4.75  -299.509500    2      2      

Converged after 148 iterations.

Dipole moment: (-28.181260, -6.512238, 2.090594) |e|*Ang

Energy contributions relative to reference atoms: (reference = -648925.267931)

Kinetic:       +207.022329
Potential:     -239.990884
External:        +0.000000
XC:            -278.977958
Entropy (-ST):   -2.806254
Local:          +13.840141
--------------------------
Free energy:   -300.912627
Extrapolated:  -299.509500

Fermi level: 1.58408

 Band  Eigenvalues  Occupancy
    0    -22.20892    2.00000
    1    -22.19231    2.00000
    2    -22.11254    2.00000
    3    -22.10393    2.00000
    4    -22.00829    2.00000
    5    -22.00212    2.00000
    6    -21.93527    2.00000
    7    -21.90083    2.00000
    8    -21.89088    2.00000
    9    -21.84811    2.00000
   10    -21.77835    2.00000
   11    -21.77427    2.00000
   12    -21.67819    2.00000
   13    -21.65513    2.00000
   14    -21.61324    2.00000
   15    -21.59367    2.00000
   16    -21.58257    2.00000
   17    -21.55703    2.00000
   18    -21.52250    2.00000
   19    -21.48902    2.00000
   20    -21.48184    2.00000
   21    -21.44418    2.00000
   22    -21.41426    2.00000
   23    -21.40407    2.00000
   24    -21.35166    2.00000
   25    -21.34682    2.00000
   26    -21.30652    2.00000
   27    -21.28377    2.00000
   28    -21.21752    2.00000
   29    -21.12258    2.00000
   30    -21.10959    2.00000
   31    -21.08164    2.00000
   32    -17.04860    2.00000
   33    -16.93925    2.00000
   34    -16.93243    2.00000
   35    -16.82990    2.00000
   36     -5.39362    2.00000
   37     -5.33217    2.00000
   38     -5.25629    2.00000
   39     -5.20795    2.00000
   40     -5.14196    2.00000
   41     -5.11364    2.00000
   42     -5.09165    2.00000
   43     -5.05519    2.00000
   44     -4.86215    2.00000
   45     -4.78832    2.00000
   46     -4.72601    2.00000
   47     -4.63777    2.00000
   48     -4.61811    2.00000
   49     -4.54237    2.00000
   50     -4.53065    2.00000
   51     -4.50085    2.00000
   52     -4.48990    2.00000
   53     -4.45121    2.00000
   54     -4.43455    2.00000
   55     -4.42061    2.00000
   56     -4.37959    2.00000
   57     -4.36945    2.00000
   58     -4.34576    2.00000
   59     -4.32244    2.00000
   60     -4.30815    2.00000
   61     -4.28885    2.00000
   62     -4.27533    2.00000
   63     -4.26655    2.00000
   64     -4.21872    2.00000
   65     -4.19230    2.00000
   66     -4.14216    2.00000
   67     -4.09771    2.00000
   68     -4.08671    2.00000
   69     -4.06155    2.00000
   70     -4.04115    2.00000
   71     -4.02562    2.00000
   72     -3.99704    2.00000
   73     -3.99291    2.00000
   74     -3.96616    2.00000
   75     -3.95646    2.00000
   76     -3.94822    2.00000
   77     -3.90325    2.00000
   78     -3.86138    2.00000
   79     -3.82099    2.00000
   80     -3.78107    2.00000
   81     -3.75649    2.00000
   82     -3.65707    2.00000
   83     -3.63504    2.00000
   84     -3.56565    2.00000
   85     -3.55569    2.00000
   86     -3.49771    2.00000
   87     -3.46956    2.00000
   88     -3.41347    2.00000
   89     -3.37558    2.00000
   90     -3.35712    2.00000
   91     -3.34528    2.00000
   92     -3.28581    2.00000
   93     -3.22711    2.00000
   94     -3.16824    2.00000
   95     -3.15301    2.00000
   96     -3.13251    2.00000
   97     -3.07116    2.00000
   98     -3.05521    2.00000
   99     -3.03042    2.00000
  100     -2.98296    2.00000
  101     -2.96819    2.00000
  102     -2.93434    2.00000
  103     -2.92261    2.00000
  104     -2.90117    2.00000
  105     -2.88041    2.00000
  106     -2.87712    2.00000
  107     -2.84451    2.00000
  108     -2.82015    2.00000
  109     -2.77693    2.00000
  110     -2.75471    2.00000
  111     -2.75213    2.00000
  112     -2.70226    2.00000
  113     -2.68643    2.00000
  114     -2.62002    2.00000
  115     -2.58277    2.00000
  116     -2.54498    2.00000
  117     -2.53024    2.00000
  118     -2.48185    2.00000
  119     -2.47633    2.00000
  120     -2.46196    2.00000
  121     -2.43915    2.00000
  122     -2.40563    2.00000
  123     -2.39595    2.00000
  124     -2.37021    2.00000
  125     -2.31120    2.00000
  126     -2.29559    2.00000
  127     -2.25304    2.00000
  128     -2.23155    2.00000
  129     -2.21196    2.00000
  130     -2.19299    2.00000
  131     -2.18323    2.00000
  132     -2.15978    2.00000
  133     -2.11734    2.00000
  134     -2.09472    2.00000
  135     -2.06538    2.00000
  136     -2.00174    2.00000
  137     -1.97972    2.00000
  138     -1.93918    2.00000
  139     -1.91488    2.00000
  140     -1.88310    2.00000
  141     -1.84780    2.00000
  142     -1.83106    2.00000
  143     -1.78563    2.00000
  144      0.83400    1.99890
  145      0.84091    1.99882
  146      0.85872    1.99859
  147      0.89445    1.99798
  148      0.90589    1.99773
  149      0.91565    1.99750
  150      0.96028    1.99610
  151      0.97392    1.99553
  152      1.00191    1.99409
  153      1.02018    1.99291
  154      1.03011    1.99218
  155      1.04168    1.99122
  156      1.05219    1.99025
  157      1.05937    1.98953
  158      1.08396    1.98663
  159      1.08968    1.98585
  160      1.12722    1.97947
  161      1.15831    1.97208
  162      1.17125    1.96829
  163      1.17367    1.96753
  164      1.19826    1.95866
  165      1.20991    1.95367
  166      1.21282    1.95234
  167      1.22181    1.94796
  168      1.22892    1.94424
  169      1.24152    1.93698
  170      1.25346    1.92928
  171      1.25762    1.92639
  172      1.26941    1.91755
  173      1.27520    1.91285
  174      1.29033    1.89933
  175      1.30048    1.88917
  176      1.32549    1.85990
  177      1.36004    1.80764
  178      1.37962    1.77079
  179      1.38822    1.75275
  180      1.40122    1.72318
  181      1.41821    1.68011
  182      1.44379    1.60528
  183      1.44955    1.58670
  184      1.45628    1.56419
  185      1.47554    1.49503
  186      1.51104    1.34976
  187      1.53336    1.24827
  188      1.58566    0.99210
  189      1.60348    0.90328
  190      1.61996    0.82248
  191      1.67417    0.57770
  192      1.69145    0.50939
  193      1.71874    0.41283
  194      1.73755    0.35459
  195      1.75547    0.30532
  196      1.82012    0.17247
  197      1.84359    0.13890
  198      1.88295    0.09587
  199      1.89702    0.08382
  200      1.93007    0.06095
  201      1.93309    0.05919
  202      1.94464    0.05290
  203      2.01302    0.02706
  204      2.11462    0.00988
  205      2.13612    0.00798
  206      2.21550    0.00361
  207      2.23850    0.00287
  208      2.27343    0.00203
  209      2.43324    0.00041
  210      2.43987    0.00038
  211      2.48181    0.00025
  212      2.50667    0.00020
  213      2.52257    0.00017
  214      2.58905    0.00009
  215      2.70388    0.00003
  216      2.73180    0.00002
  217      2.75329    0.00002
  218      2.79743    0.00001
  219      2.83326    0.00001
  220      2.85021    0.00001
  221      2.90649    0.00000
  222      2.98705    0.00000
  223      3.01457    0.00000
  224      4.90099    0.00000
  225      5.74350    0.00000
  226      6.18794    0.00000
  227      6.79304    0.00000
  228      7.40133    0.00000
  229      7.67411    0.00000
  230      7.71272    0.00000
  231      7.97126    0.00000
  232      8.23681    0.00000
  233      8.45847    0.00000
  234      8.61389    0.00000
  235      8.90915    0.00000
  236      9.85338    0.00000
  237     10.01672    0.00000
  238     10.04858    0.00000
  239     10.12413    0.00000
  240     10.44586    0.00000
  241     10.73786    0.00000
  242     10.81695    0.00000
  243     10.86693    0.00000
  244     10.96093    0.00000
  245     10.99560    0.00000
  246     11.05538    0.00000
  247     11.24932    0.00000
  248     11.27838    0.00000
  249     11.44446    0.00000
  250     11.57433    0.00000
  251     11.68560    0.00000
  252     11.72787    0.00000
  253     11.85118    0.00000
  254     11.89311    0.00000
  255     11.91942    0.00000
  256     12.02232    0.00000
  257     12.05100    0.00000
  258     12.24445    0.00000
  259     12.31449    0.00000
  260     12.33385    0.00000
  261     12.36158    0.00000
  262     12.47762    0.00000
  263     12.49748    0.00000
  264     12.55225    0.00000
  265     12.55919    0.00000
  266     12.60597    0.00000
  267     12.63312    0.00000
  268     12.69649    0.00000
  269     12.72042    0.00000
  270     12.81992    0.00000
  271     12.98700    0.00000
  272     13.05947    0.00000
  273     13.13679    0.00000
  274     13.23861    0.00000
  275     13.26486    0.00000
  276     13.32040    0.00000
  277     13.38562    0.00000
  278     13.47590    0.00000
  279     13.55951    0.00000
  280     13.68553    0.00000
  281     14.00901    0.00000
  282     14.02580    0.00000
  283     14.21538    0.00000
  284     14.36194    0.00000
  285     14.45818    0.00000
  286     14.49621    0.00000
  287     14.51550    0.00000

Timing:                              incl.     excl.
-----------------------------------------------------------
Hamiltonian:                         5.061     0.000   0.0% |
 Atomic:                             2.279     0.005   0.0% |
  XC Correction:                     2.275     2.275   0.0% |
 Calculate atomic Hamiltonians:      0.029     0.029   0.0% |
 Communicate:                        0.000     0.000   0.0% |
 Hartree integrate/restrict:         0.018     0.018   0.0% |
 Initialize Hamiltonian:             0.000     0.000   0.0% |
 Poisson:                            2.094     2.094   0.0% |
 XC 3D grid:                         0.635     0.635   0.0% |
 vbar:                               0.005     0.005   0.0% |
LCAO initialization:                20.894     0.228   0.0% |
 LCAO eigensolver:                   2.091     0.000   0.0% |
  Calculate projections:             0.023     0.023   0.0% |
  DenseAtomicCorrection:             0.022     0.022   0.0% |
  Distribute overlap matrix:         0.000     0.000   0.0% |
  Orbital Layouts:                   0.059     0.059   0.0% |
  Potential matrix:                  1.986     1.986   0.0% |
 LCAO to grid:                      17.410    17.410   0.3% |
 Set positions (LCAO WFS):           1.165     0.000   0.0% |
  Basic WFS set positions:           0.001     0.001   0.0% |
  Basis functions set positions:     0.000     0.000   0.0% |
  TCI: Calculate S, T, P:            1.163     1.163   0.0% |
SCF-cycle:                        5143.578     0.117   0.0% |
 Davidson:                        4374.469   686.922  13.3% |----|
  Apply hamiltonian:               100.762   100.762   1.9% ||
  Subspace diag:                  1266.319     0.029   0.0% |
   calc_h_matrix:                  493.298   392.180   7.6% |--|
    Apply hamiltonian:             101.118   101.118   2.0% ||
   diagonalize:                      3.228     3.228   0.1% |
   rotate_psi:                     769.764   769.764  14.9% |-----|
  calc. matrices:                 1527.043  1424.266  27.5% |----------|
   Apply hamiltonian:              102.777   102.777   2.0% ||
  diagonalize:                      14.243    14.243   0.3% |
  rotate_psi:                      779.180   779.180  15.1% |-----|
 Density:                           16.111     0.004   0.0% |
  Atomic density matrices:           0.850     0.850   0.0% |
  Mix:                               7.689     7.689   0.1% |
  Multipole moments:                 0.168     0.168   0.0% |
  Pseudo density:                    7.399     7.396   0.1% |
   Symmetrize density:               0.003     0.003   0.0% |
 Hamiltonian:                      747.497     0.031   0.0% |
  Atomic:                          340.306     0.712   0.0% |
   XC Correction:                  339.594   339.594   6.6% |--|
  Calculate atomic Hamiltonians:     4.741     4.741   0.1% |
  Communicate:                       0.001     0.001   0.0% |
  Hartree integrate/restrict:        3.035     3.035   0.1% |
  Poisson:                         302.866   302.866   5.9% |-|
  XC 3D grid:                       95.586    95.586   1.8% ||
  vbar:                              0.930     0.930   0.0% |
 Orthonormalize:                     5.384     0.000   0.0% |
  calc_s_matrix:                     1.574     1.574   0.0% |
  inverse-cholesky:                  0.004     0.004   0.0% |
  projections:                       1.194     1.194   0.0% |
  rotate_psi_s:                      2.611     2.611   0.1% |
Set symmetry:                        0.001     0.001   0.0% |
Other:                               1.269     1.269   0.0% |
-----------------------------------------------------------
Total:                                      5170.802 100.0%

Memory usage: 1.07 GiB
Date: Thu Mar 28 18:31:51 2019
