
  ___ ___ ___ _ _ _  
 |   |   |_  | | | | 
 | | | | | . | | | | 
 |__ |  _|___|_____|  1.4.0
 |___|_|             

User:   murakami@tssm1.eng.shizuoka.ac.jp
Date:   Tue Mar 26 19:31:27 2019
Arch:   x86_64
Pid:    31289
Python: 3.6.5
gpaw:   /home/murakami/.local/lib/python3.6/site-packages/gpaw
_gpaw:  /home/murakami/.local/lib/python3.6/site-packages/
        _gpaw.cpython-36m-x86_64-linux-gnu.so
ase:    /home/murakami/.local/lib/python3.6/site-packages/ase (version 3.16.2)
numpy:  /home/murakami/.local/lib/python3.6/site-packages/numpy (version 1.15.2)
scipy:  /home/murakami/.local/lib/python3.6/site-packages/scipy (version 1.1.0)
units:  Angstrom and eV
cores:  1

Input parameters:
  kpts: {size: (1, 1, 1)}
  maxiter: 300
  xc: PBE

System changes: positions, numbers, cell, pbc, initial_charges, initial_magmoms 

Initialize ...

Fe-setup:
  name: Iron
  id: 37abbd8d6c3c35915a9b583b742da910
  Z: 26
  valence: 8
  core: 18
  charge: 0.0
  file: /home/murakami/Public/gpaw-setups-0.9.20000/Fe.PBE.gz
  cutoffs: 1.06(comp), 2.06(filt), 2.67(core), lmax=2
  valence states:
                energy  radius
    4s(2.00)    -5.291   1.164
    4p(0.00)    -1.326   1.058
    3d(6.00)    -7.505   1.058
    *s          21.920   1.164
    *p          25.885   1.058
    *d          19.706   1.058

  Using partial waves for Fe as LCAO basis

O-setup:
  name: Oxygen
  id: 32ecd46bf208036f09c70b0ec9a88b78
  Z: 8
  valence: 6
  core: 2
  charge: 0.0
  file: /home/murakami/Public/gpaw-setups-0.9.20000/O.PBE.gz
  cutoffs: 0.67(comp), 1.17(filt), 0.83(core), lmax=2
  valence states:
                energy  radius
    2s(2.00)   -23.961   0.688
    2p(4.00)    -9.029   0.598
    *s           3.251   0.688
    *p          18.182   0.598
    *d           0.000   0.619

  Using partial waves for O as LCAO basis

F-setup:
  name: Fluorine
  id: 9cd46ba2a61e170ad72278be75b55cc0
  Z: 9
  valence: 7
  core: 2
  charge: 0.0
  file: /home/murakami/Public/gpaw-setups-0.9.20000/F.PBE.gz
  cutoffs: 0.64(comp), 1.14(filt), 0.74(core), lmax=2
  valence states:
                energy  radius
    2s(2.00)   -29.898   0.635
    2p(5.00)   -11.110   0.635
    *s          -2.687   0.635
    *p          16.102   0.635
    *d           0.000   0.635

  Using partial waves for F as LCAO basis

Reference energy: -319034.472395

Spin-paired calculation

Occupation numbers:
  Fermi-Dirac: width=0.1000 eV

Convergence criteria:
  Maximum total energy change: 0.0005 eV / electron
  Maximum integral of absolute density change: 0.0001 electrons
  Maximum integral of absolute eigenstate change: 4e-08 eV^2
  Maximum number of iterations: 300

Symmetries present (total): 1

  ( 1  0  0)
  ( 0  1  0)
  ( 0  0  1)

1 k-point (Gamma)
1 k-point in the irreducible part of the Brillouin zone
       k-points in crystal coordinates                weights
   0:     0.00000000    0.00000000    0.00000000          1/1

Wave functions: Uniform real-space grid
  Kinetic energy operator: 8*3+1=25 point O(h^6) finite-difference Laplacian
  ScaLapack parameters: grid=1x1, blocksize=None 

Eigensolver
   Davidson(niter=1, smin=None, normalize=True) 

Densities:
  Coarse grid: 28*24*52 grid
  Fine grid: 56*48*104 grid
  Total Charge: 0.000000 

Density mixing:
  Method: separate
  Backend: pulay
  Linear mixing parameter: 0.05
  Mixing with 5 old densities
  Damping of long wave oscillations: 50 

Hamiltonian:
  XC and Coulomb potentials evaluated on a 56*48*104 grid
  Using the PBE Exchange-Correlation functional
  Interpolation: tri-quintic (5. degree polynomial)
  Poisson solver: Jacobi solver with 4 multi-grid levels
    Coarsest grid: 7 x 6 x 13 points
    Stencil: 8*3+1=25 point O(h^6) finite-difference Laplacian
    Max iterations: 1000
    Tolerance: 2.000000e-10 

Memory estimate:
  Process memory now: 344.82 MiB
  Calculator: 140.90 MiB
    Density: 46.85 MiB
      Arrays: 6.93 MiB
      Localized functions: 37.26 MiB
      Mixer: 2.67 MiB
    Hamiltonian: 12.52 MiB
      Arrays: 4.53 MiB
      XC: 0.00 MiB
      Poisson: 5.17 MiB
      vbar: 2.82 MiB
    Wavefunctions: 81.53 MiB
      Arrays psit_nG: 36.26 MiB
      Eigensolver: 39.01 MiB
      Projections: 0.37 MiB
      Projectors: 5.90 MiB

Total number of cores used: 1

Number of atoms: 24
Number of atomic orbitals: 136
Number of bands in calculation: 136
Bands to converge: occupied states only
Number of valence electrons: 174

... initialized

Initializing position-dependent things.

Density initialized from atomic densities
Creating initial wave functions:
  136 bands from LCAO basis set

                                 
                                 
                                 
                                 
                Fe               
                     O           
                      Fe         
          FF   F                 
                    FeF          
           Fe                    
           F       F             
              F        Fe        
               Fe                
                                 
            Fe F  O   F          
                 F               
       F          Fe             
            F     F              
                                 
                                 
                                 
                                 
                                 

Positions:
   0 Fe     1.416738    1.177712    7.926783    ( 0.0000,  0.0000,  0.0000)
   1 Fe     1.371126    3.561457    2.491085    ( 0.0000,  0.0000,  0.0000)
   2 Fe     2.953178    1.160983    5.021961    ( 0.0000,  0.0000,  0.0000)
   3 Fe     2.953178    3.578186   10.538902    ( 0.0000,  0.0000,  0.0000)
   4 Fe     4.323386    1.096051    2.287094    ( 0.0000,  0.0000,  0.0000)
   5 Fe     4.323386    3.643118    7.729077    ( 0.0000,  0.0000,  0.0000)
   6 Fe     5.681193    1.143903   10.063461    ( 0.0000,  0.0000,  0.0000)
   7 Fe     5.681193    3.595266    4.621478    ( 0.0000,  0.0000,  0.0000)
   8 O      4.465826    0.277137    3.926077    ( 0.0000,  0.0000,  0.0000)
   9 O      4.465826    4.462032    9.368060    ( 0.0000,  0.0000,  0.0000)
  10 F      0.078582    0.272768    1.978610    ( 0.0000,  0.0000,  0.0000)
  11 F      0.078582    4.430090    7.420593    ( 0.0000,  0.0000,  0.0000)
  12 F      1.274802    2.129977    6.036975    ( 0.0000,  0.0000,  0.0000)
  13 F      1.329626    2.609192    0.587439    ( 0.0000,  0.0000,  0.0000)
  14 F      1.601658    0.245238    9.814751    ( 0.0000,  0.0000,  0.0000)
  15 F      1.601658    4.493931    4.372768    ( 0.0000,  0.0000,  0.0000)
  16 F      2.785597    2.149355    3.053806    ( 0.0000,  0.0000,  0.0000)
  17 F      2.763996    2.589814    8.522350    ( 0.0000,  0.0000,  0.0000)
  18 F      2.997224    0.168714    6.924657    ( 0.0000,  0.0000,  0.0000)
  19 F      2.997224    4.570455    1.375630    ( 0.0000,  0.0000,  0.0000)
  20 F      4.143358    2.099547    0.420612    ( 0.0000,  0.0000,  0.0000)
  21 F      4.143358    2.639622    5.862595    ( 0.0000,  0.0000,  0.0000)
  22 F      5.583533    2.163454    8.151270    ( 0.0000,  0.0000,  0.0000)
  23 F      5.583533    2.575715    2.752529    ( 0.0000,  0.0000,  0.0000)

Unit cell:
           periodic     x           y           z      points  spacing
  1. axis:    yes    5.735919    0.000000   -0.790267    28     0.2049
  2. axis:    yes    0.000000    4.739169    0.000000    24     0.1975
  3. axis:    yes    0.000000    0.000000   10.883966    52     0.2073

  Lengths:   5.790103   4.739169  10.883966
  Angles:   90.000000  97.844547  90.000000

Effective grid spacing dv^(1/3) = 0.2038

                     log10-error:    total        iterations:
           time      wfs    density  energy       fermi  poisson
iter:   1  19:31:45  +1.57   +inf  -150.155938    3      17     
iter:   2  19:31:49  +0.21   +inf  -150.806978    3             
iter:   3  19:31:53  -0.38   +inf  -150.994648    2             
iter:   4  19:31:59  -0.63  -1.14  -149.257806    3      8      
iter:   5  19:32:05  -0.40  -1.18  -158.152834    3      14     
iter:   6  19:32:13  -0.33  -1.19  -146.796235    4      14     
iter:   7  19:32:18  -0.72  -1.40  -146.028704    3      11     
iter:   8  19:32:23  -1.51  -1.43  -145.986149    3      11     
iter:   9  19:32:28  -1.41  -1.44  -146.651489    4      12     
iter:  10  19:32:33  -1.37  -1.42  -145.997064    3      13     
iter:  11  19:32:40  -1.48  -1.45  -146.579395    4      14     
iter:  12  19:32:47  -1.53  -1.44  -145.711371    3      13     
iter:  13  19:32:52  -1.76  -1.50  -145.692986    4      10     
iter:  14  19:32:58  -1.48  -1.54  -146.622287    4      11     
iter:  15  19:33:06  -1.25  -1.52  -148.365359    3      15     
iter:  16  19:33:11  -1.25  -1.45  -147.314273    3      14     
iter:  17  19:33:16  -1.42  -1.51  -146.219776    3      14     
iter:  18  19:33:21  -1.39  -1.60  -146.262240    4      13     
iter:  19  19:33:25  -1.74  -1.57  -145.520952    3      11     
iter:  20  19:33:30  -2.39  -1.68  -145.504276    3      7      
iter:  21  19:33:34  -2.34  -1.70  -145.699002    3      11     
iter:  22  19:33:40  -2.21  -1.68  -145.594653    2      12     
iter:  23  19:33:46  -1.90  -1.71  -145.938651    4      11     
iter:  24  19:33:51  -1.52  -1.78  -146.868001    3      14     
iter:  25  19:33:55  -1.44  -1.68  -146.416909    3      13     
iter:  26  19:34:00  -1.53  -1.70  -145.803214    3      11     
iter:  27  19:34:05  -1.84  -1.81  -145.936429    3      11     
iter:  28  19:34:09  -1.96  -1.85  -145.644525    3      12     
iter:  29  19:34:14  -2.45  -1.88  -145.589220    3      10     
iter:  30  19:34:19  -2.49  -1.95  -145.638800    3      10     
iter:  31  19:34:23  -2.50  -1.93  -145.556735    3      11     
iter:  32  19:34:28  -2.47  -1.99  -145.654498    3      8      
iter:  33  19:34:32  -2.32  -2.00  -145.644205    3      8      
iter:  34  19:34:37  -1.79  -2.11  -147.076001    3      13     
iter:  35  19:34:42  -1.75  -1.72  -145.647392    3      13     
iter:  36  19:34:47  -2.22  -2.20  -145.651359    3      10     
iter:  37  19:34:52  -2.43  -2.19  -145.580730    3      11     
iter:  38  19:34:56  -2.85  -2.26  -145.519795    3      7      
iter:  39  19:35:01  -3.82  -2.36  -145.519577    2      5      
iter:  40  19:35:06  -2.76  -2.39  -145.698822    3      11     
iter:  41  19:35:11  -2.64  -2.17  -145.528958    3      10     
iter:  42  19:35:15  -3.14  -2.83  -145.519251    3      6      
iter:  43  19:35:20  -3.19  -2.79  -145.524024    3      9      
iter:  44  19:35:25  -3.21  -2.76  -145.527853    2      7      
iter:  45  19:35:29  -3.59  -2.89  -145.515163    2      5      
iter:  46  19:35:34  -4.64  -3.17  -145.515120    2      4      
iter:  47  19:35:39  -4.44  -3.19  -145.516367    2      5      
iter:  48  19:35:43  -4.40  -3.15  -145.514628    2      6      
iter:  49  19:35:48  -4.54  -3.26  -145.514083    2      4      
iter:  50  19:35:52  -4.80  -3.30  -145.514555    2      3      
iter:  51  19:35:56  -5.08  -3.41  -145.513842    2      3      
iter:  52  19:36:01  -5.03  -3.42  -145.514734    2      4      
iter:  53  19:36:05  -5.28  -3.45  -145.514026    2      3      
iter:  54  19:36:09  -5.18  -3.47  -145.514910    2      4      
iter:  55  19:36:13  -5.21  -3.48  -145.514248    2      4      
iter:  56  19:36:18  -5.41  -3.57  -145.514648    2      3      
iter:  57  19:36:22  -5.31  -3.55  -145.514109    2      3      
iter:  58  19:36:26  -5.44  -3.54  -145.514493    2      4      
iter:  59  19:36:31  -5.59  -3.59  -145.514741    2      3      
iter:  60  19:36:35  -5.43  -3.58  -145.514119    2      4      
iter:  61  19:36:39  -5.12  -3.76  -145.515123    2      4      
iter:  62  19:36:44  -5.28  -3.63  -145.514555    2      4      
iter:  63  19:36:48  -5.78  -4.01  -145.514925    2      3      
iter:  64  19:36:52  -5.80  -3.88  -145.514604    2      3      
iter:  65  19:36:56  -6.14  -3.98  -145.514600    2      2      
iter:  66  19:37:01  -6.52  -4.14  -145.514893    2      2      
iter:  67  19:37:05  -6.52  -4.15  -145.514742    2      3      
iter:  68  19:37:09  -6.41  -4.16  -145.514587    2      2      
iter:  69  19:37:14  -6.27  -4.21  -145.514973    2      3      
iter:  70  19:37:18  -6.39  -4.10  -145.514544    2      2      
iter:  71  19:37:22  -6.60  -4.23  -145.514698    2      3      
iter:  72  19:37:26  -6.70  -4.35  -145.514551    2      2      
iter:  73  19:37:31  -6.55  -4.29  -145.514792    2      3      
iter:  74  19:37:35  -6.59  -4.38  -145.514402    2      2      
iter:  75  19:37:40  -7.18  -4.48  -145.514800    2      2      
iter:  76  19:37:46  -6.87  -4.46  -145.514778    2      3      
iter:  77  19:37:52  -6.84  -4.43  -145.514250    2      2      
iter:  78  19:37:57  -7.43  -4.61  -145.514829    2      2      

Converged after 78 iterations.

Dipole moment: (-1.638045, 2.489132, -6.073161) |e|*Ang

Energy contributions relative to reference atoms: (reference = -319034.472395)

Kinetic:       +123.163290
Potential:     -135.799855
External:        +0.000000
XC:            -139.796175
Entropy (-ST):   -1.195519
Local:           +7.515671
--------------------------
Free energy:   -146.112588
Extrapolated:  -145.514829

Fermi level: 3.80576

 Band  Eigenvalues  Occupancy
    0    -20.69255    2.00000
    1    -20.55125    2.00000
    2    -20.39406    2.00000
    3    -20.33462    2.00000
    4    -20.24821    2.00000
    5    -20.20168    2.00000
    6    -20.15046    2.00000
    7    -20.07327    2.00000
    8    -20.05961    2.00000
    9    -19.98593    2.00000
   10    -19.92754    2.00000
   11    -19.89668    2.00000
   12    -19.89064    2.00000
   13    -19.78084    2.00000
   14    -14.51621    2.00000
   15    -14.41196    2.00000
   16     -4.16301    2.00000
   17     -3.78501    2.00000
   18     -3.41915    2.00000
   19     -3.27648    2.00000
   20     -3.23392    2.00000
   21     -3.10129    2.00000
   22     -3.00045    2.00000
   23     -2.96694    2.00000
   24     -2.88374    2.00000
   25     -2.75969    2.00000
   26     -2.67853    2.00000
   27     -2.61486    2.00000
   28     -2.58559    2.00000
   29     -2.57449    2.00000
   30     -2.48047    2.00000
   31     -2.43066    2.00000
   32     -2.35890    2.00000
   33     -2.33338    2.00000
   34     -2.28052    2.00000
   35     -2.26490    2.00000
   36     -2.21721    2.00000
   37     -2.16987    2.00000
   38     -2.10183    2.00000
   39     -2.04556    2.00000
   40     -1.99346    2.00000
   41     -1.93540    2.00000
   42     -1.89218    2.00000
   43     -1.87440    2.00000
   44     -1.76719    2.00000
   45     -1.66589    2.00000
   46     -1.41658    2.00000
   47     -1.35197    2.00000
   48     -1.33836    2.00000
   49     -1.20935    2.00000
   50     -1.12879    2.00000
   51     -1.03778    2.00000
   52     -0.98498    2.00000
   53     -0.93219    2.00000
   54     -0.82618    2.00000
   55     -0.76913    2.00000
   56     -0.67433    2.00000
   57     -0.64024    2.00000
   58     -0.52650    2.00000
   59     -0.41531    2.00000
   60     -0.29794    2.00000
   61     -0.20286    2.00000
   62      0.49381    2.00000
   63      0.58977    2.00000
   64      3.01403    1.99927
   65      3.04216    1.99903
   66      3.09676    1.99833
   67      3.11616    1.99798
   68      3.13384    1.99759
   69      3.14791    1.99722
   70      3.17982    1.99618
   71      3.22347    1.99410
   72      3.24609    1.99261
   73      3.26942    1.99067
   74      3.33158    1.98270
   75      3.35617    1.97794
   76      3.38394    1.97098
   77      3.40948    1.96269
   78      3.41277    1.96146
   79      3.46943    1.93307
   80      3.47717    1.92788
   81      3.49463    1.91471
   82      3.55752    1.84579
   83      3.60093    1.77154
   84      3.67422    1.57681
   85      3.70775    1.45424
   86      3.73705    1.33062
   87      3.83174    0.87080
   88      3.84232    0.81920
   89      3.96370    0.34175
   90      4.06739    0.13619
   91      4.07038    0.13245
   92      4.15273    0.06037
   93      4.21406    0.03315
   94      4.26639    0.01978
   95      4.32703    0.01083
   96      4.51777    0.00162
   97      4.65860    0.00040
   98      4.98401    0.00002
   99      5.04439    0.00001
  100      5.10267    0.00000
  101      5.15064    0.00000
  102      5.24632    0.00000
  103      5.42497    0.00000
  104      6.34010    0.00000
  105      8.16829    0.00000
  106      8.55669    0.00000
  107     11.11012    0.00000
  108     11.43900    0.00000
  109     11.51131    0.00000
  110     11.66671    0.00000
  111     11.89017    0.00000
  112     12.07088    0.00000
  113     12.13661    0.00000
  114     12.37119    0.00000
  115     12.99546    0.00000
  116     13.32972    0.00000
  117     13.36427    0.00000
  118     13.71342    0.00000
  119     14.00373    0.00000
  120     14.69553    0.00000
  121     15.20540    0.00000
  122     15.23998    0.00000
  123     15.33892    0.00000
  124     15.55072    0.00000
  125     15.91927    0.00000
  126     15.96370    0.00000
  127     16.03372    0.00000
  128     16.10673    0.00000
  129     16.16452    0.00000
  130     16.27163    0.00000
  131     16.33260    0.00000
  132     16.43435    0.00000
  133     16.52528    0.00000
  134     16.55177    0.00000
  135     16.70177    0.00000

Timing:                              incl.     excl.
-----------------------------------------------------------
Hamiltonian:                         2.572     0.000   0.0% |
 Atomic:                             1.190     0.003   0.0% |
  XC Correction:                     1.186     1.186   0.3% |
 Calculate atomic Hamiltonians:      0.022     0.022   0.0% |
 Communicate:                        0.000     0.000   0.0% |
 Hartree integrate/restrict:         0.014     0.014   0.0% |
 Initialize Hamiltonian:             0.000     0.000   0.0% |
 Poisson:                            1.043     1.043   0.3% |
 XC 3D grid:                         0.300     0.300   0.1% |
 vbar:                               0.004     0.004   0.0% |
LCAO initialization:                 7.835     0.253   0.1% |
 LCAO eigensolver:                   1.004     0.000   0.0% |
  Calculate projections:             0.003     0.003   0.0% |
  DenseAtomicCorrection:             0.004     0.004   0.0% |
  Distribute overlap matrix:         0.000     0.000   0.0% |
  Orbital Layouts:                   0.010     0.010   0.0% |
  Potential matrix:                  0.987     0.987   0.3% |
 LCAO to grid:                       5.893     5.893   1.5% ||
 Set positions (LCAO WFS):           0.686     0.000   0.0% |
  Basic WFS set positions:           0.001     0.001   0.0% |
  Basis functions set positions:     0.000     0.000   0.0% |
  TCI: Calculate S, T, P:            0.684     0.684   0.2% |
SCF-cycle:                         378.464     0.055   0.0% |
 Davidson:                         248.004    70.019  17.9% |------|
  Apply hamiltonian:                 9.201     9.201   2.4% ||
  Subspace diag:                    60.800     0.013   0.0% |
   calc_h_matrix:                   26.000    17.097   4.4% |-|
    Apply hamiltonian:               8.903     8.903   2.3% ||
   diagonalize:                      0.331     0.331   0.1% |
   rotate_psi:                      34.456    34.456   8.8% |---|
  calc. matrices:                   71.664    62.844  16.1% |-----|
   Apply hamiltonian:                8.820     8.820   2.3% ||
  diagonalize:                       1.355     1.355   0.3% |
  rotate_psi:                       34.966    34.966   8.9% |---|
 Density:                            2.442     0.002   0.0% |
  Atomic density matrices:           0.182     0.182   0.0% |
  Mix:                               1.569     1.569   0.4% |
  Multipole moments:                 0.044     0.044   0.0% |
  Pseudo density:                    0.645     0.644   0.2% |
   Symmetrize density:               0.001     0.001   0.0% |
 Hamiltonian:                      126.785     0.008   0.0% |
  Atomic:                           84.312     0.201   0.1% |
   XC Correction:                   84.111    84.111  21.5% |--------|
  Calculate atomic Hamiltonians:     1.039     1.039   0.3% |
  Communicate:                       0.001     0.001   0.0% |
  Hartree integrate/restrict:        0.511     0.511   0.1% |
  Poisson:                          23.092    23.092   5.9% |-|
  XC 3D grid:                       17.622    17.622   4.5% |-|
  vbar:                              0.199     0.199   0.1% |
 Orthonormalize:                     1.177     0.000   0.0% |
  calc_s_matrix:                     0.157     0.157   0.0% |
  inverse-cholesky:                  0.001     0.001   0.0% |
  projections:                       0.756     0.756   0.2% |
  rotate_psi_s:                      0.263     0.263   0.1% |
Set symmetry:                        0.001     0.001   0.0% |
Other:                               1.814     1.814   0.5% |
-----------------------------------------------------------
Total:                                       390.686 100.0%

Memory usage: 344.82 MiB
Date: Tue Mar 26 19:37:57 2019
