
  ___ ___ ___ _ _ _  
 |   |   |_  | | | | 
 | | | | | . | | | | 
 |__ |  _|___|_____|  1.4.0
 |___|_|             

User:   murakami@tssm1.eng.shizuoka.ac.jp
Date:   Sat Mar 30 04:15:42 2019
Arch:   x86_64
Pid:    31289
Python: 3.6.5
gpaw:   /home/murakami/.local/lib/python3.6/site-packages/gpaw
_gpaw:  /home/murakami/.local/lib/python3.6/site-packages/
        _gpaw.cpython-36m-x86_64-linux-gnu.so
ase:    /home/murakami/.local/lib/python3.6/site-packages/ase (version 3.16.2)
numpy:  /home/murakami/.local/lib/python3.6/site-packages/numpy (version 1.15.2)
scipy:  /home/murakami/.local/lib/python3.6/site-packages/scipy (version 1.1.0)
units:  Angstrom and eV
cores:  1

Input parameters:
  kpts: {size: (1, 1, 1)}
  maxiter: 300
  xc: PBE

System changes: positions, numbers, cell, pbc, initial_charges, initial_magmoms 

Initialize ...

Fe-setup:
  name: Iron
  id: 37abbd8d6c3c35915a9b583b742da910
  Z: 26
  valence: 8
  core: 18
  charge: 0.0
  file: /home/murakami/Public/gpaw-setups-0.9.20000/Fe.PBE.gz
  cutoffs: 1.06(comp), 2.06(filt), 2.67(core), lmax=2
  valence states:
                energy  radius
    4s(2.00)    -5.291   1.164
    4p(0.00)    -1.326   1.058
    3d(6.00)    -7.505   1.058
    *s          21.920   1.164
    *p          25.885   1.058
    *d          19.706   1.058

  Using partial waves for Fe as LCAO basis

O-setup:
  name: Oxygen
  id: 32ecd46bf208036f09c70b0ec9a88b78
  Z: 8
  valence: 6
  core: 2
  charge: 0.0
  file: /home/murakami/Public/gpaw-setups-0.9.20000/O.PBE.gz
  cutoffs: 0.67(comp), 1.17(filt), 0.83(core), lmax=2
  valence states:
                energy  radius
    2s(2.00)   -23.961   0.688
    2p(4.00)    -9.029   0.598
    *s           3.251   0.688
    *p          18.182   0.598
    *d           0.000   0.619

  Using partial waves for O as LCAO basis

F-setup:
  name: Fluorine
  id: 9cd46ba2a61e170ad72278be75b55cc0
  Z: 9
  valence: 7
  core: 2
  charge: 0.0
  file: /home/murakami/Public/gpaw-setups-0.9.20000/F.PBE.gz
  cutoffs: 0.64(comp), 1.14(filt), 0.74(core), lmax=2
  valence states:
                energy  radius
    2s(2.00)   -29.898   0.635
    2p(5.00)   -11.110   0.635
    *s          -2.687   0.635
    *p          16.102   0.635
    *d           0.000   0.635

  Using partial waves for F as LCAO basis

Reference energy: -479224.937077

Spin-paired calculation

Occupation numbers:
  Fermi-Dirac: width=0.1000 eV

Convergence criteria:
  Maximum total energy change: 0.0005 eV / electron
  Maximum integral of absolute density change: 0.0001 electrons
  Maximum integral of absolute eigenstate change: 4e-08 eV^2
  Maximum number of iterations: 300

Symmetries present (total): 1

  ( 1  0  0)
  ( 0  1  0)
  ( 0  0  1)

1 k-point (Gamma)
1 k-point in the irreducible part of the Brillouin zone
       k-points in crystal coordinates                weights
   0:     0.00000000    0.00000000    0.00000000          1/1

Wave functions: Uniform real-space grid
  Kinetic energy operator: 6*3+1=19 point O(h^6) finite-difference Laplacian
  ScaLapack parameters: grid=1x1, blocksize=None 

Eigensolver
   Davidson(niter=1, smin=None, normalize=True) 

Densities:
  Coarse grid: 16*104*32 grid
  Fine grid: 32*208*64 grid
  Total Charge: 0.000000 

Density mixing:
  Method: separate
  Backend: pulay
  Linear mixing parameter: 0.05
  Mixing with 5 old densities
  Damping of long wave oscillations: 50 

Hamiltonian:
  XC and Coulomb potentials evaluated on a 32*208*64 grid
  Using the PBE Exchange-Correlation functional
  Interpolation: tri-quintic (5. degree polynomial)
  Poisson solver: Jacobi solver with 5 multi-grid levels
    Coarsest grid: 2 x 13 x 4 points
    Stencil: 6*3+1=19 point O(h^6) finite-difference Laplacian
    Max iterations: 1000
    Tolerance: 2.000000e-10 

Memory estimate:
  Process memory now: 1103.97 MiB
  Calculator: 269.53 MiB
    Density: 69.97 MiB
      Arrays: 10.56 MiB
      Localized functions: 55.35 MiB
      Mixer: 4.06 MiB
    Hamiltonian: 19.00 MiB
      Arrays: 6.91 MiB
      XC: 0.00 MiB
      Poisson: 7.89 MiB
      vbar: 4.20 MiB
    Wavefunctions: 180.56 MiB
      Arrays psit_nG: 82.88 MiB
      Eigensolver: 88.09 MiB
      Projections: 0.82 MiB
      Projectors: 8.78 MiB

Total number of cores used: 1

Number of atoms: 36
Number of atomic orbitals: 204
Number of bands in calculation: 204
Bands to converge: occupied states only
Number of valence electrons: 262

... initialized

Initializing position-dependent things.

Density initialized from atomic densities
Creating initial wave functions:
  204 bands from LCAO basis set

              .-------.  
             /|  F    |  
            / |       |  
           /  |       |  
          / F |       |  
         /    |  F    |  
        /   Fe|       |  
       /  FFe |F      |  
      /O      Fe------.  
     /      F/       /   
    /   FeF F   Fe  /    
   /       F F     /     
  /F  F   /   F   Fe     
 *     F Fe  F   /       
 |   F  F       /        
 F Fe  /       /         
 |    F   F   /          
 | F Fe      /           
 O  /   F   /            
 | /   Fe  /             
 |/       /              
 Fe------*               

Positions:
   0 Fe     0.000000    3.412698    3.405553    ( 0.0000,  0.0000,  0.0000)
   1 Fe     0.000000   17.123411    3.405553    ( 0.0000,  0.0000,  0.0000)
   2 Fe    -0.015271   13.700665    0.009448    ( 0.0000,  0.0000,  0.0000)
   3 Fe     0.000000    6.848719    0.054399    ( 0.0000,  0.0000,  0.0000)
   4 Fe     1.626314    3.411629    0.000027    ( 0.0000,  0.0000,  0.0000)
   5 Fe     1.619848   17.137755    0.000027    ( 0.0000,  0.0000,  0.0000)
   6 Fe     1.626314   13.686321    3.368726    ( 0.0000,  0.0000,  0.0000)
   7 Fe     1.626314    6.863063    3.396133    ( 0.0000,  0.0000,  0.0000)
   8 Fe     0.000000    0.000000    0.082607    ( 0.0000,  0.0000,  0.0000)
   9 Fe     0.000000   10.288090    3.478712    ( 0.0000,  0.0000,  0.0000)
  10 Fe     1.626314    0.000000    3.208640    ( 0.0000,  0.0000,  0.0000)
  11 Fe     1.626314   10.274692    6.604746    ( 0.0000,  0.0000,  0.0000)
  12 O      0.000000    0.000000    2.135213    ( 0.0000,  0.0000,  0.0000)
  13 O      0.000000   10.274692    5.531319    ( 0.0000,  0.0000,  0.0000)
  14 F      0.000000    3.455769    1.380850    ( 0.0000,  0.0000,  0.0000)
  15 F      0.017232   17.093615    1.380850    ( 0.0000,  0.0000,  0.0000)
  16 F      0.000000   13.730461    4.776955    ( 0.0000,  0.0000,  0.0000)
  17 F     -0.008242    6.799791    4.720186    ( 0.0000,  0.0000,  0.0000)
  18 F      0.000000    3.460146    5.429327    ( 0.0000,  0.0000,  0.0000)
  19 F      0.000000   17.089238    5.429327    ( 0.0000,  0.0000,  0.0000)
  20 F      0.000000   13.734838    2.033221    ( 0.0000,  0.0000,  0.0000)
  21 F      0.000000    6.814546    2.033221    ( 0.0000,  0.0000,  0.0000)
  22 F      1.626314    1.405002    6.767331    ( 0.0000,  0.0000,  0.0000)
  23 F      1.626314   19.144382    6.767331    ( 0.0000,  0.0000,  0.0000)
  24 F      1.619949   11.679694    3.371226    ( 0.0000,  0.0000,  0.0000)
  25 F      1.626314    8.869690    3.371226    ( 0.0000,  0.0000,  0.0000)
  26 F      1.626314    2.017621    3.434678    ( 0.0000,  0.0000,  0.0000)
  27 F      1.626314   18.549929    3.434678    ( 0.0000,  0.0000,  0.0000)
  28 F      1.626314   12.292313    0.038573    ( 0.0000,  0.0000,  0.0000)
  29 F      1.626314    8.257071    0.038573    ( 0.0000,  0.0000,  0.0000)
  30 F      1.626314    4.829660    3.406464    ( 0.0000,  0.0000,  0.0000)
  31 F      1.626314   15.739595    3.406464    ( 0.0000,  0.0000,  0.0000)
  32 F      1.626314   14.895714    0.010358    ( 0.0000,  0.0000,  0.0000)
  33 F      1.626314    5.508180    0.010358    ( 0.0000,  0.0000,  0.0000)
  34 F      0.000000    0.000000    4.718827    ( 0.0000,  0.0000,  0.0000)
  35 F      0.000000   10.274692    1.322722    ( 0.0000,  0.0000,  0.0000)

Unit cell:
           periodic     x           y           z      points  spacing
  1. axis:    yes    3.252628    0.000000    0.000000    16     0.2033
  2. axis:    yes    0.000000   20.549384    0.000000   104     0.1976
  3. axis:    yes    0.000000    0.000000    6.792211    32     0.2123

  Lengths:   3.252628  20.549384   6.792211
  Angles:   90.000000  90.000000  90.000000

Effective grid spacing dv^(1/3) = 0.2043

                     log10-error:    total        iterations:
           time      wfs    density  energy       fermi  poisson
iter:   1  04:16:23  +1.74   +inf  -213.470464    3      19     
iter:   2  04:16:36  +0.20   +inf  -214.372737    3             
iter:   3  04:16:48  -0.37   +inf  -214.633314    2             
iter:   4  04:17:03  -0.64  -1.12  -212.537479    3      9      
iter:   5  04:17:18  -0.32  -1.16  -264.528149    36     15     
iter:   6  04:17:32  -0.32  -1.05  -245.742185    4      15     
iter:   7  04:17:46  -0.28  -1.07  -229.564550    4      14     
iter:   8  04:18:02  -0.41  -1.21  -259.389786    4      15     
iter:   9  04:18:17  -0.48  -1.11  -213.042072    4      14     
iter:  10  04:18:32  -0.65  -1.27  -209.858005    3      10     
iter:  11  04:18:46  -1.00  -1.36  -210.248700    3      13     
iter:  12  04:19:00  -1.38  -1.35  -207.321867    3      12     
iter:  13  04:19:15  -1.66  -1.43  -207.864312    3      11     
iter:  14  04:19:30  -1.65  -1.43  -209.023637    3      12     
iter:  15  04:19:47  -1.72  -1.40  -207.755414    3      12     
iter:  16  04:20:03  -1.73  -1.44  -206.452976    3      10     
iter:  17  04:20:19  -1.77  -1.49  -206.676520    3      8      
iter:  18  04:20:32  -1.51  -1.51  -208.329286    2      11     
iter:  19  04:20:43  -1.54  -1.45  -208.981297    3      12     
iter:  20  04:20:54  -1.67  -1.44  -207.634181    3      12     
iter:  21  04:21:05  -1.49  -1.50  -216.603002    4      13     
iter:  22  04:21:16  -1.36  -1.31  -206.952404    4      13     
iter:  23  04:21:27  -1.83  -1.53  -206.364634    3      7      
iter:  24  04:21:38  -2.28  -1.59  -206.581212    3      9      
iter:  25  04:21:48  -2.38  -1.57  -206.603994    3      9      
iter:  26  04:22:02  -2.15  -1.59  -207.499355    3      11     
iter:  27  04:22:14  -1.38  -1.56  -244.127292    30     14     
iter:  28  04:22:25  -0.96  -1.19  -208.677351    3      14     
iter:  29  04:22:36  -1.40  -1.52  -207.153633    3      9      
iter:  30  04:22:47  -1.80  -1.60  -206.946548    3      10     
iter:  31  04:22:58  -2.12  -1.62  -206.266731    3      10     
iter:  32  04:23:09  -2.68  -1.68  -206.578387    3      8      
iter:  33  04:23:20  -1.79  -1.66  -215.833997    3      13     
iter:  34  04:23:30  -1.44  -1.33  -206.606160    3      13     
iter:  35  04:23:41  -1.91  -1.67  -207.019241    3      10     
iter:  36  04:23:52  -1.88  -1.66  -206.901523    3      8      
iter:  37  04:24:04  -1.72  -1.72  -209.331532    3      12     
iter:  38  04:24:15  -1.84  -1.51  -206.450435    3      12     
iter:  39  04:24:26  -2.33  -1.75  -206.656134    3      8      
iter:  40  04:24:37  -1.88  -1.77  -207.940169    3      10     
iter:  41  04:24:48  -1.87  -1.70  -206.658992    3      11     
iter:  42  04:24:59  -1.94  -1.80  -206.679482    3      9      
iter:  43  04:25:09  -1.99  -1.92  -206.751069    3      10     
iter:  44  04:25:20  -1.79  -2.03  -207.770134    3      11     
iter:  45  04:25:31  -1.89  -1.76  -206.513202    3      11     
iter:  46  04:25:41  -2.53  -2.04  -206.358563    2      10     
iter:  47  04:25:52  -2.69  -2.12  -206.239179    2      8      
iter:  48  04:26:03  -3.05  -2.19  -206.224675    2      6      
iter:  49  04:26:13  -3.05  -2.16  -206.273365    3      6      
iter:  50  04:26:24  -2.28  -2.15  -207.854651    3      11     
iter:  51  04:26:34  -2.11  -1.80  -206.459033    3      11     
iter:  52  04:26:45  -2.55  -2.07  -206.572382    2      9      
iter:  53  04:26:56  -2.45  -2.06  -206.886874    2      10     
iter:  54  04:27:06  -2.50  -1.96  -206.330863    3      9      
iter:  55  04:27:17  -2.98  -2.17  -206.306529    2      6      
iter:  56  04:27:28  -2.06  -2.15  -208.278482    3      11     
iter:  57  04:27:39  -1.92  -1.79  -206.208683    3      11     
iter:  58  04:27:50  -2.79  -2.26  -206.300591    2      7      
iter:  59  04:28:01  -2.87  -2.20  -206.565706    2      9      
iter:  60  04:28:11  -2.90  -2.06  -206.205641    3      9      
iter:  61  04:28:24  -3.16  -2.28  -206.226482    2      6      
iter:  62  04:28:37  -2.12  -2.27  -209.360017    3      12     
iter:  63  04:28:49  -1.90  -1.67  -206.487994    3      12     
iter:  64  04:29:02  -2.54  -2.10  -206.200925    2      8      
iter:  65  04:29:14  -3.14  -2.31  -206.214225    2      6      
iter:  66  04:29:25  -3.28  -2.30  -206.187670    2      5      
iter:  67  04:29:35  -3.39  -2.34  -206.181157    2      5      
iter:  68  04:29:46  -2.31  -2.36  -208.881767    3      11     
iter:  69  04:29:57  -2.15  -1.69  -206.373797    3      11     
iter:  70  04:30:08  -2.57  -2.23  -206.310746    2      8      
iter:  71  04:30:19  -2.78  -2.21  -206.189576    2      7      
iter:  72  04:30:29  -3.56  -2.36  -206.155160    2      6      
iter:  73  04:30:40  -3.90  -2.44  -206.158673    2      5      
iter:  74  04:30:51  -2.47  -2.44  -208.073485    3      11     
iter:  75  04:31:01  -2.22  -1.79  -206.126336    3      11     
iter:  76  04:31:12  -3.17  -2.55  -206.144628    2      6      
iter:  77  04:31:23  -3.25  -2.50  -206.151834    2      6      
iter:  78  04:31:33  -3.18  -2.48  -206.142727    2      7      
iter:  79  04:31:44  -3.66  -2.53  -206.124277    2      5      
iter:  80  04:31:55  -2.82  -2.60  -206.473208    2      9      
iter:  81  04:32:07  -2.68  -2.16  -206.135979    3      9      
iter:  82  04:32:17  -3.44  -2.57  -206.131986    2      6      
iter:  83  04:32:28  -3.59  -2.57  -206.130693    2      7      
iter:  84  04:32:40  -3.57  -2.67  -206.113726    2      6      
iter:  85  04:32:51  -3.78  -2.73  -206.105546    2      5      
iter:  86  04:33:02  -3.45  -2.77  -206.177155    2      7      
iter:  87  04:33:13  -3.15  -2.51  -206.103739    2      6      
iter:  88  04:33:23  -3.66  -2.70  -206.105352    2      6      
iter:  89  04:33:35  -4.16  -2.82  -206.099456    2      6      
iter:  90  04:33:47  -4.38  -2.84  -206.094843    2      5      
iter:  91  04:33:59  -4.13  -2.92  -206.097000    2      4      
iter:  92  04:34:10  -4.01  -2.92  -206.104332    2      5      
iter:  93  04:34:22  -4.05  -2.86  -206.099929    2      6      
iter:  94  04:34:34  -4.14  -2.88  -206.112587    2      6      
iter:  95  04:34:45  -3.93  -2.72  -206.108397    2      7      
iter:  96  04:34:56  -3.92  -2.74  -206.103649    2      6      
iter:  97  04:35:06  -4.29  -2.95  -206.092807    2      4      
iter:  98  04:35:17  -4.93  -3.08  -206.091359    2      3      
iter:  99  04:35:27  -5.20  -3.12  -206.092613    2      4      
iter: 100  04:35:37  -4.89  -3.12  -206.092354    2      4      
iter: 101  04:35:48  -4.51  -3.10  -206.108383    2      6      
iter: 102  04:35:59  -3.94  -2.81  -206.089297    2      6      
iter: 103  04:36:11  -3.79  -2.97  -206.098689    2      5      
iter: 104  04:36:21  -4.00  -3.00  -206.101371    2      5      
iter: 105  04:36:33  -4.29  -2.99  -206.098092    2      5      
iter: 106  04:36:43  -4.47  -3.09  -206.091859    2      4      
iter: 107  04:36:54  -5.30  -3.30  -206.091791    2      4      
iter: 108  04:37:04  -5.19  -3.32  -206.093897    2      5      
iter: 109  04:37:15  -4.59  -3.34  -206.089260    2      4      
iter: 110  04:37:26  -4.36  -3.24  -206.090129    2      4      
iter: 111  04:37:36  -4.54  -3.18  -206.092729    2      4      
iter: 112  04:37:47  -4.77  -3.26  -206.094579    2      5      
iter: 113  04:37:57  -4.93  -3.13  -206.090699    2      4      
iter: 114  04:38:08  -5.72  -3.46  -206.089923    2      3      
iter: 115  04:38:18  -5.73  -3.54  -206.090581    2      3      
iter: 116  04:38:29  -5.30  -3.54  -206.092490    2      4      
iter: 117  04:38:40  -5.15  -3.51  -206.090035    2      3      
iter: 118  04:38:50  -5.27  -3.44  -206.092296    2      4      
iter: 119  04:39:00  -4.81  -3.32  -206.090906    2      5      
iter: 120  04:39:11  -4.97  -3.21  -206.091043    2      4      
iter: 121  04:39:22  -5.53  -3.58  -206.089796    2      3      
iter: 122  04:39:32  -6.01  -3.68  -206.089404    2      3      
iter: 123  04:39:42  -5.81  -3.72  -206.090576    2      3      
iter: 124  04:39:53  -6.03  -3.71  -206.090300    2      4      
iter: 125  04:40:04  -5.52  -3.59  -206.092133    2      4      
iter: 126  04:40:15  -5.17  -3.54  -206.089130    2      4      
iter: 127  04:40:26  -5.16  -3.60  -206.091403    2      3      
iter: 128  04:40:36  -5.46  -3.49  -206.090284    2      4      
iter: 129  04:40:47  -5.50  -3.78  -206.089303    1      4      
iter: 130  04:40:58  -5.76  -3.81  -206.090197    2      3      
iter: 131  04:41:09  -6.25  -3.97  -206.089899    2      3      
iter: 132  04:41:19  -6.20  -3.99  -206.090744    2      3      
iter: 133  04:41:30  -5.83  -3.96  -206.089637    2      3      
iter: 134  04:41:41  -5.70  -3.78  -206.090193    2      3      
iter: 135  04:41:52  -5.77  -3.58  -206.090358    2      3      
iter: 136  04:42:03  -6.51  -4.06  -206.090065    2      2      
iter: 137  04:42:13  -6.83  -4.30  -206.090013    2      2      
iter: 138  04:42:24  -6.76  -4.25  -206.089919    2      2      
iter: 139  04:42:35  -7.08  -4.24  -206.090097    2      2      
iter: 140  04:42:45  -7.59  -4.28  -206.089977    2      1      

Converged after 140 iterations.

Dipole moment: (-25.022226, -31.065605, -35.517226) |e|*Ang

Energy contributions relative to reference atoms: (reference = -479224.937077)

Kinetic:       +177.935077
Potential:     -181.543172
External:        +0.000000
XC:            -213.115198
Entropy (-ST):   -1.408089
Local:          +11.337360
--------------------------
Free energy:   -206.794022
Extrapolated:  -206.089977

Fermi level: 3.85538

 Band  Eigenvalues  Occupancy
    0    -20.92313    2.00000
    1    -20.79587    2.00000
    2    -20.68728    2.00000
    3    -20.64537    2.00000
    4    -20.61179    2.00000
    5    -20.42069    2.00000
    6    -20.38487    2.00000
    7    -20.37737    2.00000
    8    -20.36917    2.00000
    9    -20.33581    2.00000
   10    -20.32869    2.00000
   11    -20.30298    2.00000
   12    -20.25081    2.00000
   13    -20.23897    2.00000
   14    -20.19511    2.00000
   15    -20.17343    2.00000
   16    -20.16009    2.00000
   17    -20.15291    2.00000
   18    -20.13652    2.00000
   19    -20.11280    2.00000
   20    -19.00375    2.00000
   21    -18.99856    2.00000
   22    -14.48761    2.00000
   23    -14.47800    2.00000
   24     -4.29428    2.00000
   25     -4.20020    2.00000
   26     -4.03055    2.00000
   27     -3.95819    2.00000
   28     -3.75642    2.00000
   29     -3.56016    2.00000
   30     -3.51306    2.00000
   31     -3.45089    2.00000
   32     -3.35709    2.00000
   33     -3.19103    2.00000
   34     -2.85882    2.00000
   35     -2.78479    2.00000
   36     -2.69797    2.00000
   37     -2.59300    2.00000
   38     -2.54814    2.00000
   39     -2.49460    2.00000
   40     -2.48245    2.00000
   41     -2.47352    2.00000
   42     -2.44120    2.00000
   43     -2.42745    2.00000
   44     -2.39968    2.00000
   45     -2.39544    2.00000
   46     -2.36685    2.00000
   47     -2.36275    2.00000
   48     -2.33412    2.00000
   49     -2.28211    2.00000
   50     -2.24316    2.00000
   51     -2.23358    2.00000
   52     -2.21413    2.00000
   53     -2.20462    2.00000
   54     -2.19741    2.00000
   55     -2.18867    2.00000
   56     -2.16328    2.00000
   57     -2.15628    2.00000
   58     -2.11904    2.00000
   59     -2.08970    2.00000
   60     -2.03104    2.00000
   61     -1.96429    2.00000
   62     -1.90690    2.00000
   63     -1.80903    2.00000
   64     -1.72129    2.00000
   65     -1.66243    2.00000
   66     -1.63197    2.00000
   67     -1.62574    2.00000
   68     -1.59217    2.00000
   69     -1.57420    2.00000
   70     -1.53997    2.00000
   71     -1.48460    2.00000
   72     -1.40621    2.00000
   73     -1.37753    2.00000
   74     -1.32556    2.00000
   75     -1.31497    2.00000
   76     -1.28409    2.00000
   77     -1.23542    2.00000
   78     -1.20017    2.00000
   79     -1.19274    2.00000
   80     -1.16835    2.00000
   81     -1.13018    2.00000
   82     -1.11529    2.00000
   83     -1.08165    2.00000
   84     -0.99325    2.00000
   85     -0.94366    2.00000
   86     -0.79738    2.00000
   87     -0.70948    2.00000
   88     -0.10105    2.00000
   89     -0.09482    2.00000
   90     -0.08588    2.00000
   91     -0.04172    2.00000
   92      0.10467    2.00000
   93      0.11270    2.00000
   94      0.67577    2.00000
   95      0.68720    2.00000
   96      2.84343    1.99992
   97      2.89117    1.99987
   98      2.90227    1.99985
   99      2.92574    1.99982
  100      2.93600    1.99980
  101      2.97493    1.99970
  102      2.99678    1.99963
  103      2.99762    1.99962
  104      3.01904    1.99953
  105      3.06157    1.99929
  106      3.06436    1.99927
  107      3.06623    1.99925
  108      3.09570    1.99900
  109      3.18715    1.99750
  110      3.19283    1.99735
  111      3.19411    1.99732
  112      3.24216    1.99567
  113      3.24228    1.99566
  114      3.24582    1.99550
  115      3.25636    1.99501
  116      3.28200    1.99355
  117      3.30871    1.99159
  118      3.30937    1.99153
  119      3.34306    1.98816
  120      3.36372    1.98546
  121      3.36882    1.98470
  122      3.39711    1.97975
  123      3.49316    1.94794
  124      3.50327    1.94257
  125      3.58170    1.87833
  126      3.65991    1.75192
  127      3.68462    1.69306
  128      3.76906    1.40667
  129      3.78203    1.35115
  130      3.80982    1.22398
  131      3.87322    0.91107
  132      3.92713    0.65591
  133      3.97867    0.45135
  134      3.99321    0.40256
  135      4.09254    0.17073
  136      4.17196    0.08095
  137      4.22099    0.05037
  138      4.23864    0.04239
  139      4.24610    0.03940
  140      4.26755    0.03192
  141      4.27185    0.03059
  142      4.34842    0.01434
  143      4.35520    0.01341
  144      4.42624    0.00661
  145      4.47347    0.00413
  146      4.47797    0.00395
  147      4.48646    0.00363
  148      4.48708    0.00360
  149      4.49991    0.00317
  150      4.61646    0.00099
  151      4.97253    0.00003
  152      5.16448    0.00000
  153      5.28479    0.00000
  154      5.36936    0.00000
  155      5.37547    0.00000
  156      5.96343    0.00000
  157      6.42920    0.00000
  158      6.83184    0.00000
  159      8.10559    0.00000
  160      8.30880    0.00000
  161      9.66706    0.00000
  162      9.85431    0.00000
  163     10.01967    0.00000
  164     10.30940    0.00000
  165     10.35861    0.00000
  166     10.37758    0.00000
  167     10.43270    0.00000
  168     10.74389    0.00000
  169     10.77494    0.00000
  170     10.95108    0.00000
  171     11.03719    0.00000
  172     11.35854    0.00000
  173     11.53437    0.00000
  174     11.68111    0.00000
  175     12.04917    0.00000
  176     12.09624    0.00000
  177     12.84924    0.00000
  178     13.07523    0.00000
  179     13.41617    0.00000
  180     14.30496    0.00000
  181     14.47710    0.00000
  182     14.87104    0.00000
  183     15.04479    0.00000
  184     15.17873    0.00000
  185     15.41886    0.00000
  186     15.66503    0.00000
  187     15.83770    0.00000
  188     16.19865    0.00000
  189     16.27769    0.00000
  190     16.38634    0.00000
  191     16.46173    0.00000
  192     16.49751    0.00000
  193     16.85715    0.00000
  194     16.88102    0.00000
  195     16.91001    0.00000
  196     16.95328    0.00000
  197     16.96233    0.00000
  198     17.08329    0.00000
  199     17.17996    0.00000
  200     17.31877    0.00000
  201     17.36136    0.00000
  202     17.44111    0.00000
  203     17.50594    0.00000

Timing:                              incl.     excl.
-----------------------------------------------------------
Hamiltonian:                         4.357     0.000   0.0% |
 Atomic:                             2.045     0.004   0.0% |
  XC Correction:                     2.040     2.040   0.1% |
 Calculate atomic Hamiltonians:      0.017     0.017   0.0% |
 Communicate:                        0.000     0.000   0.0% |
 Hartree integrate/restrict:         0.013     0.013   0.0% |
 Initialize Hamiltonian:             0.000     0.000   0.0% |
 Poisson:                            1.789     1.789   0.1% |
 XC 3D grid:                         0.488     0.488   0.0% |
 vbar:                               0.006     0.006   0.0% |
LCAO initialization:                19.082     0.280   0.0% |
 LCAO eigensolver:                   1.716     0.000   0.0% |
  Calculate projections:             0.008     0.008   0.0% |
  DenseAtomicCorrection:             0.009     0.009   0.0% |
  Distribute overlap matrix:         0.000     0.000   0.0% |
  Orbital Layouts:                   0.027     0.027   0.0% |
  Potential matrix:                  1.672     1.672   0.1% |
 LCAO to grid:                      15.720    15.720   1.0% |
 Set positions (LCAO WFS):           1.366     0.000   0.0% |
  Basic WFS set positions:           0.001     0.001   0.0% |
  Basis functions set positions:     0.000     0.000   0.0% |
  TCI: Calculate S, T, P:            1.364     1.364   0.1% |
SCF-cycle:                        1598.661     0.112   0.0% |
 Davidson:                        1255.850   276.255  17.0% |------|
  Apply hamiltonian:                31.515    31.515   1.9% ||
  Subspace diag:                   336.884     0.025   0.0% |
   calc_h_matrix:                  133.852   102.503   6.3% |--|
    Apply hamiltonian:              31.349    31.349   1.9% ||
   diagonalize:                      1.647     1.647   0.1% |
   rotate_psi:                     201.360   201.360  12.4% |----|
  calc. matrices:                  403.791   372.139  22.9% |--------|
   Apply hamiltonian:               31.652    31.652   1.9% ||
  diagonalize:                       5.856     5.856   0.4% |
  rotate_psi:                      201.550   201.550  12.4% |----|
 Density:                            7.320     0.004   0.0% |
  Atomic density matrices:           0.528     0.528   0.0% |
  Mix:                               3.519     3.519   0.2% |
  Multipole moments:                 0.116     0.116   0.0% |
  Pseudo density:                    3.152     3.149   0.2% |
   Symmetrize density:               0.003     0.003   0.0% |
 Hamiltonian:                      332.334     0.017   0.0% |
  Atomic:                          229.328     0.510   0.0% |
   XC Correction:                  228.818   228.818  14.1% |-----|
  Calculate atomic Hamiltonians:     2.055     2.055   0.1% |
  Communicate:                       0.001     0.001   0.0% |
  Hartree integrate/restrict:        0.951     0.951   0.1% |
  Poisson:                          52.514    52.514   3.2% ||
  XC 3D grid:                       47.012    47.012   2.9% ||
  vbar:                              0.455     0.455   0.0% |
 Orthonormalize:                     3.046     0.000   0.0% |
  calc_s_matrix:                     0.623     0.623   0.0% |
  inverse-cholesky:                  0.003     0.003   0.0% |
  projections:                       1.497     1.497   0.1% |
  rotate_psi_s:                      0.923     0.923   0.1% |
Set symmetry:                        0.001     0.001   0.0% |
Other:                               1.610     1.610   0.1% |
-----------------------------------------------------------
Total:                                      1623.711 100.0%

Memory usage: 1.08 GiB
Date: Sat Mar 30 04:42:45 2019
