
  ___ ___ ___ _ _ _  
 |   |   |_  | | | | 
 | | | | | . | | | | 
 |__ |  _|___|_____|  1.4.0
 |___|_|             

User:   murakami@tssm1.eng.shizuoka.ac.jp
Date:   Sat Mar 30 05:13:17 2019
Arch:   x86_64
Pid:    31289
Python: 3.6.5
gpaw:   /home/murakami/.local/lib/python3.6/site-packages/gpaw
_gpaw:  /home/murakami/.local/lib/python3.6/site-packages/
        _gpaw.cpython-36m-x86_64-linux-gnu.so
ase:    /home/murakami/.local/lib/python3.6/site-packages/ase (version 3.16.2)
numpy:  /home/murakami/.local/lib/python3.6/site-packages/numpy (version 1.15.2)
scipy:  /home/murakami/.local/lib/python3.6/site-packages/scipy (version 1.1.0)
units:  Angstrom and eV
cores:  1

Input parameters:
  kpts: {size: (1, 1, 1)}
  maxiter: 300
  xc: PBE

System changes: positions, numbers, cell, pbc, initial_charges, initial_magmoms 

Initialize ...

Fe-setup:
  name: Iron
  id: 37abbd8d6c3c35915a9b583b742da910
  Z: 26
  valence: 8
  core: 18
  charge: 0.0
  file: /home/murakami/Public/gpaw-setups-0.9.20000/Fe.PBE.gz
  cutoffs: 1.06(comp), 2.06(filt), 2.67(core), lmax=2
  valence states:
                energy  radius
    4s(2.00)    -5.291   1.164
    4p(0.00)    -1.326   1.058
    3d(6.00)    -7.505   1.058
    *s          21.920   1.164
    *p          25.885   1.058
    *d          19.706   1.058

  Using partial waves for Fe as LCAO basis

O-setup:
  name: Oxygen
  id: 32ecd46bf208036f09c70b0ec9a88b78
  Z: 8
  valence: 6
  core: 2
  charge: 0.0
  file: /home/murakami/Public/gpaw-setups-0.9.20000/O.PBE.gz
  cutoffs: 0.67(comp), 1.17(filt), 0.83(core), lmax=2
  valence states:
                energy  radius
    2s(2.00)   -23.961   0.688
    2p(4.00)    -9.029   0.598
    *s           3.251   0.688
    *p          18.182   0.598
    *d           0.000   0.619

  Using partial waves for O as LCAO basis

F-setup:
  name: Fluorine
  id: 9cd46ba2a61e170ad72278be75b55cc0
  Z: 9
  valence: 7
  core: 2
  charge: 0.0
  file: /home/murakami/Public/gpaw-setups-0.9.20000/F.PBE.gz
  cutoffs: 0.64(comp), 1.14(filt), 0.74(core), lmax=2
  valence states:
                energy  radius
    2s(2.00)   -29.898   0.635
    2p(5.00)   -11.110   0.635
    *s          -2.687   0.635
    *p          16.102   0.635
    *d           0.000   0.635

  Using partial waves for F as LCAO basis

Reference energy: -479224.937077

Spin-paired calculation

Occupation numbers:
  Fermi-Dirac: width=0.1000 eV

Convergence criteria:
  Maximum total energy change: 0.0005 eV / electron
  Maximum integral of absolute density change: 0.0001 electrons
  Maximum integral of absolute eigenstate change: 4e-08 eV^2
  Maximum number of iterations: 300

Symmetries present (total): 1

  ( 1  0  0)
  ( 0  1  0)
  ( 0  0  1)

1 k-point (Gamma)
1 k-point in the irreducible part of the Brillouin zone
       k-points in crystal coordinates                weights
   0:     0.00000000    0.00000000    0.00000000          1/1

Wave functions: Uniform real-space grid
  Kinetic energy operator: 6*3+1=19 point O(h^6) finite-difference Laplacian
  ScaLapack parameters: grid=1x1, blocksize=None 

Eigensolver
   Davidson(niter=1, smin=None, normalize=True) 

Densities:
  Coarse grid: 16*104*36 grid
  Fine grid: 32*208*72 grid
  Total Charge: 0.000000 

Density mixing:
  Method: separate
  Backend: pulay
  Linear mixing parameter: 0.05
  Mixing with 5 old densities
  Damping of long wave oscillations: 50 

Hamiltonian:
  XC and Coulomb potentials evaluated on a 32*208*72 grid
  Using the PBE Exchange-Correlation functional
  Interpolation: tri-quintic (5. degree polynomial)
  Poisson solver: Jacobi solver with 4 multi-grid levels
    Coarsest grid: 4 x 26 x 9 points
    Warning: Coarse grid has more than 24 points.
             More multi-grid levels recommended.
    Stencil: 6*3+1=19 point O(h^6) finite-difference Laplacian
    Max iterations: 1000
    Tolerance: 2.000000e-10 

Memory estimate:
  Process memory now: 1103.97 MiB
  Calculator: 301.70 MiB
    Density: 77.91 MiB
      Arrays: 11.88 MiB
      Localized functions: 61.45 MiB
      Mixer: 4.57 MiB
    Hamiltonian: 21.29 MiB
      Arrays: 7.77 MiB
      XC: 0.00 MiB
      Poisson: 8.85 MiB
      vbar: 4.66 MiB
    Wavefunctions: 202.51 MiB
      Arrays psit_nG: 93.23 MiB
      Eigensolver: 98.70 MiB
      Projections: 0.82 MiB
      Projectors: 9.75 MiB

Total number of cores used: 1

Number of atoms: 36
Number of atomic orbitals: 204
Number of bands in calculation: 204
Bands to converge: occupied states only
Number of valence electrons: 262

... initialized

Initializing position-dependent things.

Density initialized from atomic densities
Creating initial wave functions:
  204 bands from LCAO basis set

              .-------.  
             /|  F    |  
            / |       |  
           /  |       |  
          / F |       |  
         /    |  F    |  
        /   Fe|       |  
       /  FFe |F      |  
      / O     Fe------.  
     /      F/       /   
    /  Fe F F   Fe  /    
   / F Fe  F   F   /     
  /F  F   Fe      /      
 *     F Fe  F   /       
 |   F  F       /        
 F Fe  /       /         
 |    F   F   /          
 | F Fe      /           
 O  /   F   /            
 | /       /             
 |/       /              
 Fe------*               

Positions:
   0 Fe     0.000000    3.425973    3.419936    ( 0.0000,  0.0000,  0.0000)
   1 Fe     0.000000   17.123411    3.429806    ( 0.0000,  0.0000,  0.0000)
   2 Fe     0.000000   13.700665    0.009488    ( 0.0000,  0.0000,  0.0000)
   3 Fe     0.000000    6.848719    0.009488    ( 0.0000,  0.0000,  0.0000)
   4 Fe     1.640865    3.411629   -0.027693    ( 0.0000,  0.0000,  0.0000)
   5 Fe     1.622395   16.986244    0.000027    ( 0.0000,  0.0000,  0.0000)
   6 Fe     1.640865   13.686321    3.410475    ( 0.0000,  0.0000,  0.0000)
   7 Fe     1.640865    6.863063    3.410475    ( 0.0000,  0.0000,  0.0000)
   8 Fe     0.000000    0.000000    0.082956    ( 0.0000,  0.0000,  0.0000)
   9 Fe     0.000000   10.274692    3.493404    ( 0.0000,  0.0000,  0.0000)
  10 Fe     1.640865    0.000000    3.222191    ( 0.0000,  0.0000,  0.0000)
  11 Fe     1.640865   10.274692    6.632639    ( 0.0000,  0.0000,  0.0000)
  12 O      0.007597    0.000000    2.144231    ( 0.0000,  0.0000,  0.0000)
  13 O      0.000000   10.426778    5.554679    ( 0.0000,  0.0000,  0.0000)
  14 F      0.000000    3.455769    1.386681    ( 0.0000,  0.0000,  0.0000)
  15 F      0.000000   17.093615    1.386681    ( 0.0000,  0.0000,  0.0000)
  16 F      0.000000   13.730461    4.818670    ( 0.0000,  0.0000,  0.0000)
  17 F      0.000000    6.818923    4.797129    ( 0.0000,  0.0000,  0.0000)
  18 F      0.000000    3.460146    5.452256    ( 0.0000,  0.0000,  0.0000)
  19 F      0.000000   17.089238    5.452256    ( 0.0000,  0.0000,  0.0000)
  20 F      0.000000   13.734838    2.041808    ( 0.0000,  0.0000,  0.0000)
  21 F      0.000000    6.814546    2.041808    ( 0.0000,  0.0000,  0.0000)
  22 F      1.640865    1.405002    6.795911    ( 0.0000,  0.0000,  0.0000)
  23 F      1.640865   19.144382    6.795911    ( 0.0000,  0.0000,  0.0000)
  24 F      1.667401   11.679694    3.385463    ( 0.0000,  0.0000,  0.0000)
  25 F      1.640865    8.869690    3.385463    ( 0.0000,  0.0000,  0.0000)
  26 F      1.640865    2.017621    3.449184    ( 0.0000,  0.0000,  0.0000)
  27 F      1.640865   18.531763    3.449184    ( 0.0000,  0.0000,  0.0000)
  28 F      1.640865   12.292313    0.038736    ( 0.0000,  0.0000,  0.0000)
  29 F      1.640865    8.257071    0.038736    ( 0.0000,  0.0000,  0.0000)
  30 F      1.640865    4.809789    3.420850    ( 0.0000,  0.0000,  0.0000)
  31 F      1.640865   15.739595    3.450371    ( 0.0000,  0.0000,  0.0000)
  32 F      1.640865   15.084481    0.010402    ( 0.0000,  0.0000,  0.0000)
  33 F      1.640865    5.464903    0.010402    ( 0.0000,  0.0000,  0.0000)
  34 F      0.000000    0.000000    4.738756    ( 0.0000,  0.0000,  0.0000)
  35 F      0.000000   10.274692    1.328308    ( 0.0000,  0.0000,  0.0000)

Unit cell:
           periodic     x           y           z      points  spacing
  1. axis:    yes    3.281730    0.000000    0.000000    16     0.2051
  2. axis:    yes    0.000000   20.549384    0.000000   104     0.1976
  3. axis:    yes    0.000000    0.000000    6.820896    36     0.1895

  Lengths:   3.281730  20.549384   6.820896
  Angles:   90.000000  90.000000  90.000000

Effective grid spacing dv^(1/3) = 0.1973

                     log10-error:    total        iterations:
           time      wfs    density  energy       fermi  poisson
iter:   1  05:13:43  +1.74   +inf  -211.660600    3      25     
iter:   2  05:13:52  +0.20   +inf  -212.525578    3             
iter:   3  05:14:01  -0.38   +inf  -212.773137    2             
iter:   4  05:14:14  -0.64  -1.12  -210.576835    3      27     
iter:   5  05:14:28  -0.29  -1.16  -244.410933    36     56     
iter:   6  05:14:43  -0.31  -1.07  -272.931939    5      64     
iter:   7  05:14:58  -0.29  -1.03  -242.537233    3      63     
iter:   8  05:15:12  -0.39  -1.17  -233.583119    3      62     
iter:   9  05:15:27  -0.49  -1.18  -229.520117    35     63     
iter:  10  05:15:41  -0.57  -1.18  -208.465042    3      55     
iter:  11  05:15:54  -1.09  -1.35  -205.954086    2      39     
iter:  12  05:16:09  -1.34  -1.41  -219.910852    4      55     
iter:  13  05:16:23  -1.28  -1.21  -205.165085    3      54     
iter:  14  05:16:38  -1.55  -1.44  -211.206642    3      49     
iter:  15  05:16:52  -1.34  -1.28  -208.741399    2      54     
iter:  16  05:17:06  -1.50  -1.35  -205.507211    3      48     
iter:  17  05:17:18  -1.63  -1.45  -204.818230    3      27     
iter:  18  05:17:31  -1.83  -1.49  -204.873818    4      39     
iter:  19  05:17:45  -1.49  -1.51  -213.036215    3      52     
iter:  20  05:17:59  -1.39  -1.28  -207.690727    3      54     
iter:  21  05:18:13  -1.44  -1.44  -206.294337    3      50     
iter:  22  05:18:26  -1.47  -1.52  -208.611117    2      52     
iter:  23  05:18:40  -1.45  -1.44  -205.229445    3      43     
iter:  24  05:18:53  -1.84  -1.59  -204.471894    3      35     
iter:  25  05:19:06  -2.28  -1.61  -206.650182    3      44     
iter:  26  05:19:19  -1.88  -1.52  -205.780439    3      49     
iter:  27  05:19:33  -1.56  -1.56  -211.149074    4      50     
iter:  28  05:19:48  -1.47  -1.39  -209.476026    3      55     
iter:  29  05:20:02  -1.43  -1.43  -205.689022    3      45     
iter:  30  05:20:14  -1.77  -1.59  -204.618249    3      33     
iter:  31  05:20:26  -2.54  -1.66  -204.711544    3      19     
iter:  32  05:20:42  -2.56  -1.66  -204.748689    3      39     
iter:  33  05:20:59  -1.62  -1.66  -213.854216    3      51     
iter:  34  05:21:16  -1.31  -1.35  -212.816342    3      57     
iter:  35  05:21:33  -1.42  -1.37  -205.578181    4      49     
iter:  36  05:21:49  -1.77  -1.63  -204.945135    3      39     
iter:  37  05:22:03  -2.07  -1.68  -204.520853    2      13     
iter:  38  05:22:18  -2.82  -1.72  -204.445733    2      28     
iter:  39  05:22:35  -1.88  -1.74  -211.056305    3      49     
iter:  40  05:22:49  -1.45  -1.41  -211.639940    2      56     
iter:  41  05:23:03  -1.51  -1.40  -204.941960    4      49     
iter:  42  05:23:15  -2.06  -1.71  -204.668295    2      20     
iter:  43  05:23:28  -2.25  -1.76  -205.818709    3      44     
iter:  44  05:23:42  -2.15  -1.67  -204.850614    3      46     
iter:  45  05:23:56  -2.15  -1.74  -205.792364    3      42     
iter:  46  05:24:10  -1.88  -1.68  -207.614475    3      51     
iter:  47  05:24:23  -1.65  -1.55  -205.526756    3      48     
iter:  48  05:24:36  -1.89  -1.72  -204.693869    2      28     
iter:  49  05:24:49  -2.17  -1.80  -204.793230    3      31     
iter:  50  05:25:02  -1.98  -1.83  -205.739426    2      40     
iter:  51  05:25:17  -2.03  -1.70  -205.664132    3      46     
iter:  52  05:25:32  -1.62  -1.71  -219.783345    3      55     
iter:  53  05:25:51  -1.36  -1.31  -204.561815    3      54     
iter:  54  05:26:09  -2.14  -1.86  -204.533585    2      19     
iter:  55  05:26:28  -2.68  -1.88  -204.726241    2      25     
iter:  56  05:26:43  -2.56  -1.85  -204.876106    2      28     
iter:  57  05:26:58  -2.51  -1.83  -205.468569    2      42     
iter:  58  05:27:17  -1.78  -1.75  -214.021102    3      53     
iter:  59  05:27:39  -1.48  -1.38  -204.508230    3      51     
iter:  60  05:28:00  -2.20  -1.91  -204.770528    2      34     
iter:  61  05:28:21  -2.66  -1.86  -204.578329    2      24     
iter:  62  05:28:37  -3.26  -1.90  -204.572654    2      7      
iter:  63  05:28:55  -2.69  -1.91  -205.189566    3      38     
iter:  64  05:29:14  -1.80  -1.83  -212.560355    4      52     
iter:  65  05:29:33  -1.50  -1.43  -204.879131    3      51     
iter:  66  05:29:48  -2.17  -1.87  -204.813335    2      41     
iter:  67  05:30:02  -2.09  -1.96  -204.906707    2      37     
iter:  68  05:30:14  -2.21  -1.95  -204.472317    3      20     
iter:  69  05:30:27  -2.74  -2.02  -204.605451    3      18     
iter:  70  05:30:41  -2.00  -1.98  -208.872190    3      49     
iter:  71  05:30:56  -1.77  -1.54  -204.614847    3      49     
iter:  72  05:31:10  -2.42  -2.00  -204.690334    2      37     
iter:  73  05:31:27  -2.30  -1.98  -204.712886    3      36     
iter:  74  05:31:46  -2.30  -2.01  -204.497931    2      25     
iter:  75  05:32:03  -2.93  -2.06  -204.478561    2      21     
iter:  76  05:32:21  -2.02  -2.08  -210.695001    3      50     
iter:  77  05:32:35  -1.71  -1.47  -204.533112    3      50     
iter:  78  05:32:48  -2.39  -2.06  -204.579117    2      21     
iter:  79  05:33:01  -2.56  -2.06  -204.779419    2      33     
iter:  80  05:33:14  -2.74  -2.00  -204.525760    3      34     
iter:  81  05:33:26  -2.94  -2.11  -204.491467    2      13     
iter:  82  05:33:40  -1.71  -2.11  -218.520521    4      54     
iter:  83  05:33:54  -1.51  -1.35  -204.477739    3      54     
iter:  84  05:34:06  -2.37  -2.12  -204.480826    2      16     
iter:  85  05:34:18  -2.74  -2.14  -204.521295    2      10     
iter:  86  05:34:31  -2.85  -2.12  -204.814065    2      35     
iter:  87  05:34:44  -2.76  -2.01  -204.601976    2      39     
iter:  88  05:34:58  -1.77  -2.08  -217.806860    3      53     
iter:  89  05:35:13  -1.53  -1.36  -204.432932    3      53     
iter:  90  05:35:25  -2.33  -2.25  -204.425408    2      9      
iter:  91  05:35:37  -2.85  -2.22  -204.456055    2      15     
iter:  92  05:35:51  -2.83  -2.20  -204.659171    3      32     
iter:  93  05:36:07  -2.75  -2.10  -204.448397    2      33     
iter:  94  05:36:26  -2.27  -2.24  -207.087743    3      47     
iter:  95  05:36:44  -2.10  -1.69  -204.626846    3      45     
iter:  96  05:37:01  -2.60  -2.15  -204.437405    3      32     
iter:  97  05:37:16  -3.16  -2.26  -204.409910    2      13     
iter:  98  05:37:33  -2.96  -2.29  -204.618999    2      32     
iter:  99  05:37:50  -2.41  -2.14  -204.816152    2      40     
iter: 100  05:38:05  -2.23  -2.06  -205.377384    2      42     
iter: 101  05:38:21  -2.55  -1.90  -204.452643    3      39     
iter: 102  05:38:37  -3.01  -2.28  -204.475291    2      22     
iter: 103  05:38:54  -2.73  -2.22  -204.585208    2      35     
iter: 104  05:39:13  -2.45  -2.16  -205.002425    3      40     
iter: 105  05:39:32  -2.22  -2.00  -204.694217    2      41     
iter: 106  05:39:48  -2.48  -2.12  -204.538991    3      35     
iter: 107  05:40:01  -3.27  -2.19  -204.441864    2      22     
iter: 108  05:40:13  -3.79  -2.28  -204.434910    2      7      
iter: 109  05:40:26  -2.92  -2.27  -204.674834    3      35     
iter: 110  05:40:39  -2.44  -2.12  -204.961438    2      41     
iter: 111  05:40:52  -2.35  -2.03  -204.501945    2      40     
iter: 112  05:41:06  -2.61  -2.24  -204.604353    2      37     
iter: 113  05:41:19  -2.62  -2.17  -204.445697    2      37     
iter: 114  05:41:31  -3.32  -2.27  -204.399626    2      16     
iter: 115  05:41:44  -3.41  -2.33  -204.522757    2      32     
iter: 116  05:41:57  -2.76  -2.21  -204.664175    2      39     
iter: 117  05:42:10  -2.64  -2.14  -204.434104    3      35     
iter: 118  05:42:23  -2.74  -2.32  -204.565623    3      35     
iter: 119  05:42:36  -2.61  -2.20  -204.435310    2      36     
iter: 120  05:42:49  -3.21  -2.31  -204.384792    2      24     
iter: 121  05:43:02  -3.08  -2.42  -204.468481    2      27     
iter: 122  05:43:17  -2.86  -2.32  -204.732540    3      39     
iter: 123  05:43:30  -2.62  -2.14  -204.489777    2      39     
iter: 124  05:43:43  -2.56  -2.26  -204.402774    2      30     
iter: 125  05:43:59  -2.92  -2.41  -204.487143    2      32     
iter: 126  05:44:16  -3.40  -2.28  -204.334204    2      28     
iter: 127  05:44:31  -4.09  -2.57  -204.344806    2      15     
iter: 128  05:44:48  -3.37  -2.54  -204.473680    2      33     
iter: 129  05:45:05  -3.08  -2.30  -204.387478    2      34     
iter: 130  05:45:22  -3.17  -2.41  -204.335631    2      29     
iter: 131  05:45:37  -3.55  -2.58  -204.362898    2      20     
iter: 132  05:45:52  -3.97  -2.49  -204.333329    2      19     
iter: 133  05:46:04  -4.60  -2.60  -204.327495    2      6      
iter: 134  05:46:17  -3.51  -2.63  -204.431525    2      30     
iter: 135  05:46:30  -3.33  -2.38  -204.350127    2      33     
iter: 136  05:46:42  -3.27  -2.54  -204.330360    2      22     
iter: 137  05:46:55  -3.52  -2.66  -204.328914    2      12     
iter: 138  05:47:08  -3.44  -2.67  -204.366302    2      23     
iter: 139  05:47:21  -3.49  -2.51  -204.351234    2      31     
iter: 140  05:47:34  -3.41  -2.51  -204.351475    2      28     
iter: 141  05:47:46  -3.41  -2.59  -204.419716    2      32     
iter: 142  05:48:00  -3.32  -2.39  -204.320211    2      28     
iter: 143  05:48:12  -4.17  -2.75  -204.318230    2      7      
iter: 144  05:48:23  -4.23  -2.75  -204.322213    2      10     
iter: 145  05:48:37  -3.22  -2.71  -204.650832    2      36     
iter: 146  05:48:51  -2.99  -2.13  -204.330718    2      36     
iter: 147  05:49:04  -3.63  -2.71  -204.361793    2      26     
iter: 148  05:49:16  -3.67  -2.53  -204.328577    2      24     
iter: 149  05:49:28  -4.21  -2.69  -204.330223    2      6      
iter: 150  05:49:39  -4.39  -2.70  -204.326334    2      7      
iter: 151  05:49:54  -2.80  -2.74  -205.074237    2      39     
iter: 152  05:50:08  -2.64  -1.98  -204.327666    2      39     
iter: 153  05:50:21  -3.56  -2.78  -204.335040    2      15     
iter: 154  05:50:34  -3.83  -2.67  -204.334741    2      20     
iter: 155  05:50:47  -4.07  -2.72  -204.330703    2      17     
iter: 156  05:50:59  -3.88  -2.80  -204.325470    2      10     
iter: 157  05:51:12  -3.18  -2.81  -204.423365    2      30     
iter: 158  05:51:24  -3.06  -2.42  -204.317842    2      28     
iter: 159  05:51:36  -3.82  -2.88  -204.316884    2      16     
iter: 160  05:51:49  -4.07  -2.92  -204.342816    2      25     
iter: 161  05:52:01  -3.90  -2.66  -204.322652    2      25     
iter: 162  05:52:13  -4.16  -2.91  -204.311124    2      15     
iter: 163  05:52:25  -4.01  -3.10  -204.311900    2      15     
iter: 164  05:52:37  -3.91  -2.86  -204.311012    2      16     
iter: 165  05:52:49  -4.59  -3.10  -204.308691    2      8      
iter: 166  05:53:01  -4.86  -3.16  -204.311313    2      12     
iter: 167  05:53:13  -4.38  -3.10  -204.313644    2      18     
iter: 168  05:53:25  -4.03  -2.94  -204.315301    2      23     
iter: 169  05:53:37  -4.33  -3.00  -204.313073    2      14     
iter: 170  05:53:50  -4.62  -3.07  -204.308556    2      13     
iter: 171  05:54:02  -4.79  -3.52  -204.306526    2      6      
iter: 172  05:54:14  -4.66  -3.42  -204.306683    2      15     
iter: 173  05:54:26  -4.71  -3.14  -204.306519    2      11     
iter: 174  05:54:38  -4.88  -3.64  -204.307444    2      14     
iter: 175  05:54:53  -4.92  -3.24  -204.306469    2      8      
iter: 176  05:55:08  -5.63  -3.56  -204.306528    2      9      
iter: 177  05:55:22  -5.65  -3.62  -204.306459    2      3      
iter: 178  05:55:36  -5.96  -3.72  -204.305866    2      3      
iter: 179  05:55:52  -5.18  -3.80  -204.308750    2      12     
iter: 180  05:56:07  -5.10  -3.34  -204.305849    2      5      
iter: 181  05:56:22  -5.64  -3.54  -204.305832    2      8      
iter: 182  05:56:34  -5.79  -3.65  -204.306001    1      3      
iter: 183  05:56:46  -6.36  -3.82  -204.306218    2      3      
iter: 184  05:56:57  -5.95  -3.95  -204.306333    1      6      
iter: 185  05:57:10  -5.87  -3.74  -204.306384    1      3      
iter: 186  05:57:22  -6.39  -3.77  -204.306699    2      2      
iter: 187  05:57:33  -6.65  -3.81  -204.306481    2      2      
iter: 188  05:57:44  -6.49  -3.81  -204.306268    2      2      
iter: 189  05:57:56  -4.93  -3.80  -204.310675    2      18     
iter: 190  05:58:08  -4.84  -3.01  -204.306122    2      15     
iter: 191  05:58:21  -6.03  -3.72  -204.306175    1      4      
iter: 192  05:58:32  -6.04  -3.95  -204.306279    2      5      
iter: 193  05:58:44  -5.95  -3.96  -204.306524    2      3      
iter: 194  05:58:55  -6.40  -3.93  -204.306581    2      2      
iter: 195  05:59:08  -5.81  -3.93  -204.306601    2      8      
iter: 196  05:59:19  -5.61  -3.62  -204.306614    2      6      
iter: 197  05:59:31  -6.46  -4.08  -204.306465    2      3      
iter: 198  05:59:43  -6.37  -4.09  -204.306665    2      3      
iter: 199  05:59:59  -6.30  -4.05  -204.306680    2      3      
iter: 200  06:00:14  -6.32  -4.05  -204.306343    2      3      
iter: 201  06:00:29  -6.03  -4.02  -204.305981    2      3      
iter: 202  06:00:44  -5.92  -4.07  -204.306731    2      3      
iter: 203  06:00:59  -6.16  -3.98  -204.306415    2      3      
iter: 204  06:01:15  -6.88  -4.14  -204.306293    2      2      
iter: 205  06:01:32  -6.38  -4.24  -204.306728    2      3      
iter: 206  06:01:46  -6.42  -4.08  -204.306513    2      3      
iter: 207  06:02:00  -6.54  -4.05  -204.306717    2      2      
iter: 208  06:02:14  -7.30  -4.11  -204.306627    1      1      
iter: 209  06:02:30  -7.36  -4.14  -204.306601    2      2      
iter: 210  06:02:46  -5.93  -4.19  -204.306311    2      6      
iter: 211  06:03:02  -5.92  -3.74  -204.306293    1      3      
iter: 212  06:03:18  -6.99  -3.93  -204.306360    1      2      
iter: 213  06:03:33  -7.30  -4.03  -204.306297    2      1      
iter: 214  06:03:49  -6.65  -4.09  -204.306487    2      4      
iter: 215  06:04:04  -6.92  -4.12  -204.306522    1      2      
iter: 216  06:04:20  -7.21  -4.07  -204.306586    1      2      
iter: 217  06:04:37  -7.43  -4.07  -204.306635    1      1      

Converged after 217 iterations.

Dipole moment: (-25.727347, -31.242443, -29.583005) |e|*Ang

Energy contributions relative to reference atoms: (reference = -479224.937077)

Kinetic:       +163.329821
Potential:     -167.117982
External:        +0.000000
XC:            -209.517479
Entropy (-ST):   -1.441235
Local:           +9.719623
--------------------------
Free energy:   -205.027252
Extrapolated:  -204.306635

Fermi level: 3.67257

 Band  Eigenvalues  Occupancy
    0    -21.10899    2.00000
    1    -20.85776    2.00000
    2    -20.72588    2.00000
    3    -20.71542    2.00000
    4    -20.67236    2.00000
    5    -20.51241    2.00000
    6    -20.46301    2.00000
    7    -20.42713    2.00000
    8    -20.41161    2.00000
    9    -20.40695    2.00000
   10    -20.40124    2.00000
   11    -20.38670    2.00000
   12    -20.36784    2.00000
   13    -20.33649    2.00000
   14    -20.28821    2.00000
   15    -20.28009    2.00000
   16    -20.26453    2.00000
   17    -20.23740    2.00000
   18    -20.21011    2.00000
   19    -19.89488    2.00000
   20    -19.07060    2.00000
   21    -19.04899    2.00000
   22    -14.54314    2.00000
   23    -14.52770    2.00000
   24     -4.38457    2.00000
   25     -4.25955    2.00000
   26     -4.04044    2.00000
   27     -3.97733    2.00000
   28     -3.89293    2.00000
   29     -3.67403    2.00000
   30     -3.55198    2.00000
   31     -3.41943    2.00000
   32     -3.39354    2.00000
   33     -3.26824    2.00000
   34     -2.91115    2.00000
   35     -2.78353    2.00000
   36     -2.75456    2.00000
   37     -2.72745    2.00000
   38     -2.64087    2.00000
   39     -2.54487    2.00000
   40     -2.54004    2.00000
   41     -2.51148    2.00000
   42     -2.46906    2.00000
   43     -2.46797    2.00000
   44     -2.45498    2.00000
   45     -2.44208    2.00000
   46     -2.40492    2.00000
   47     -2.36667    2.00000
   48     -2.36280    2.00000
   49     -2.35627    2.00000
   50     -2.32822    2.00000
   51     -2.32336    2.00000
   52     -2.30204    2.00000
   53     -2.28956    2.00000
   54     -2.27166    2.00000
   55     -2.23506    2.00000
   56     -2.21888    2.00000
   57     -2.20285    2.00000
   58     -2.17741    2.00000
   59     -2.12198    2.00000
   60     -2.10777    2.00000
   61     -2.05248    2.00000
   62     -2.01574    2.00000
   63     -1.88228    2.00000
   64     -1.78214    2.00000
   65     -1.75211    2.00000
   66     -1.74942    2.00000
   67     -1.69312    2.00000
   68     -1.69133    2.00000
   69     -1.67493    2.00000
   70     -1.53583    2.00000
   71     -1.52614    2.00000
   72     -1.45308    2.00000
   73     -1.44103    2.00000
   74     -1.40083    2.00000
   75     -1.39795    2.00000
   76     -1.35792    2.00000
   77     -1.27406    2.00000
   78     -1.25604    2.00000
   79     -1.25082    2.00000
   80     -1.21926    2.00000
   81     -1.20581    2.00000
   82     -1.18668    2.00000
   83     -1.08681    2.00000
   84     -1.02339    2.00000
   85     -0.99149    2.00000
   86     -0.86035    2.00000
   87     -0.80234    2.00000
   88     -0.19003    2.00000
   89     -0.17893    2.00000
   90     -0.16225    2.00000
   91     -0.11356    2.00000
   92      0.06877    2.00000
   93      0.09959    2.00000
   94      0.60417    2.00000
   95      0.62615    2.00000
   96      2.67938    1.99990
   97      2.72239    1.99985
   98      2.74389    1.99981
   99      2.76534    1.99977
  100      2.77625    1.99974
  101      2.82509    1.99958
  102      2.82724    1.99957
  103      2.84302    1.99950
  104      2.85349    1.99945
  105      2.86075    1.99940
  106      2.90902    1.99903
  107      2.92457    1.99887
  108      2.99807    1.99765
  109      3.00595    1.99746
  110      3.00660    1.99744
  111      3.01273    1.99728
  112      3.04755    1.99615
  113      3.08727    1.99427
  114      3.09319    1.99393
  115      3.10218    1.99336
  116      3.10869    1.99291
  117      3.13294    1.99098
  118      3.15427    1.98884
  119      3.16842    1.98716
  120      3.18347    1.98508
  121      3.18918    1.98422
  122      3.20714    1.98114
  123      3.31931    1.94320
  124      3.34217    1.92913
  125      3.41488    1.85872
  126      3.46500    1.77704
  127      3.48590    1.73216
  128      3.58242    1.42254
  129      3.61279    1.29032
  130      3.63737    1.17424
  131      3.68303    0.94775
  132      3.74863    0.63706
  133      3.79388    0.45833
  134      3.80487    0.42065
  135      3.91538    0.16212
  136      3.98764    0.08213
  137      4.04821    0.04567
  138      4.05436    0.04301
  139      4.05842    0.04133
  140      4.06855    0.03742
  141      4.07361    0.03561
  142      4.08615    0.03148
  143      4.17144    0.01354
  144      4.17682    0.01283
  145      4.22921    0.00762
  146      4.23752    0.00701
  147      4.24982    0.00621
  148      4.25410    0.00595
  149      4.30794    0.00347
  150      4.42525    0.00108
  151      4.78267    0.00003
  152      4.96158    0.00001
  153      5.08318    0.00000
  154      5.12481    0.00000
  155      5.14433    0.00000
  156      5.80396    0.00000
  157      6.27743    0.00000
  158      6.64664    0.00000
  159      7.93641    0.00000
  160      8.13349    0.00000
  161      9.43460    0.00000
  162      9.68724    0.00000
  163      9.80646    0.00000
  164     10.11924    0.00000
  165     10.15380    0.00000
  166     10.21075    0.00000
  167     10.25191    0.00000
  168     10.55004    0.00000
  169     10.57281    0.00000
  170     10.74730    0.00000
  171     10.79881    0.00000
  172     11.19865    0.00000
  173     11.33275    0.00000
  174     11.47089    0.00000
  175     11.81394    0.00000
  176     11.94542    0.00000
  177     12.58133    0.00000
  178     12.86937    0.00000
  179     13.16442    0.00000
  180     14.21030    0.00000
  181     14.39501    0.00000
  182     14.78131    0.00000
  183     14.80686    0.00000
  184     15.00039    0.00000
  185     15.37215    0.00000
  186     15.39862    0.00000
  187     15.59717    0.00000
  188     15.97298    0.00000
  189     15.99452    0.00000
  190     16.25171    0.00000
  191     16.28460    0.00000
  192     16.29298    0.00000
  193     16.63391    0.00000
  194     16.70549    0.00000
  195     16.71784    0.00000
  196     16.77741    0.00000
  197     16.79220    0.00000
  198     16.87852    0.00000
  199     16.89455    0.00000
  200     17.10752    0.00000
  201     17.18541    0.00000
  202     17.26604    0.00000
  203     17.37608    0.00000

Timing:                              incl.     excl.
-----------------------------------------------------------
Hamiltonian:                         3.253     0.000   0.0% |
 Atomic:                             1.600     0.003   0.0% |
  XC Correction:                     1.597     1.597   0.1% |
 Calculate atomic Hamiltonians:      0.015     0.015   0.0% |
 Communicate:                        0.000     0.000   0.0% |
 Hartree integrate/restrict:         0.011     0.011   0.0% |
 Initialize Hamiltonian:             0.000     0.000   0.0% |
 Poisson:                            1.258     1.258   0.0% |
 XC 3D grid:                         0.366     0.366   0.0% |
 vbar:                               0.003     0.003   0.0% |
LCAO initialization:                11.325     0.228   0.0% |
 LCAO eigensolver:                   1.542     0.000   0.0% |
  Calculate projections:             0.008     0.008   0.0% |
  DenseAtomicCorrection:             0.008     0.008   0.0% |
  Distribute overlap matrix:         0.000     0.000   0.0% |
  Orbital Layouts:                   0.025     0.025   0.0% |
  Potential matrix:                  1.500     1.500   0.0% |
 LCAO to grid:                       8.613     8.613   0.3% |
 Set positions (LCAO WFS):           0.942     0.000   0.0% |
  Basic WFS set positions:           0.001     0.001   0.0% |
  Basis functions set positions:     0.000     0.000   0.0% |
  TCI: Calculate S, T, P:            0.941     0.941   0.0% |
SCF-cycle:                        3064.985     0.159   0.0% |
 Davidson:                        2221.989   502.229  16.3% |------|
  Apply hamiltonian:                53.904    53.904   1.7% ||
  Subspace diag:                   590.248     0.040   0.0% |
   calc_h_matrix:                  235.542   181.177   5.9% |-|
    Apply hamiltonian:              54.365    54.365   1.8% ||
   diagonalize:                      2.611     2.611   0.1% |
   rotate_psi:                     352.056   352.056  11.4% |----|
  calc. matrices:                  710.424   656.186  21.3% |--------|
   Apply hamiltonian:               54.239    54.239   1.8% ||
  diagonalize:                       9.525     9.525   0.3% |
  rotate_psi:                      355.658   355.658  11.5% |----|
 Density:                           12.587     0.006   0.0% |
  Atomic density matrices:           0.826     0.826   0.0% |
  Mix:                               6.200     6.200   0.2% |
  Multipole moments:                 0.182     0.182   0.0% |
  Pseudo density:                    5.373     5.368   0.2% |
   Symmetrize density:               0.004     0.004   0.0% |
 Hamiltonian:                      828.336     0.028   0.0% |
  Atomic:                          366.918     0.857   0.0% |
   XC Correction:                  366.061   366.061  11.9% |----|
  Calculate atomic Hamiltonians:     3.534     3.534   0.1% |
  Communicate:                       0.012     0.012   0.0% |
  Hartree integrate/restrict:        3.110     3.110   0.1% |
  Poisson:                         368.786   368.786  12.0% |----|
  XC 3D grid:                       84.978    84.978   2.8% ||
  vbar:                              0.970     0.970   0.0% |
 Orthonormalize:                     1.913     0.000   0.0% |
  calc_s_matrix:                     0.497     0.497   0.0% |
  inverse-cholesky:                  0.002     0.002   0.0% |
  projections:                       0.622     0.622   0.0% |
  rotate_psi_s:                      0.793     0.793   0.0% |
Set symmetry:                        0.001     0.001   0.0% |
Other:                               1.055     1.055   0.0% |
-----------------------------------------------------------
Total:                                      3080.618 100.0%

Memory usage: 1.08 GiB
Date: Sat Mar 30 06:04:37 2019
