
  ___ ___ ___ _ _ _  
 |   |   |_  | | | | 
 | | | | | . | | | | 
 |__ |  _|___|_____|  1.4.0
 |___|_|             

User:   murakami@tssm1.eng.shizuoka.ac.jp
Date:   Sat Mar 30 02:45:02 2019
Arch:   x86_64
Pid:    31289
Python: 3.6.5
gpaw:   /home/murakami/.local/lib/python3.6/site-packages/gpaw
_gpaw:  /home/murakami/.local/lib/python3.6/site-packages/
        _gpaw.cpython-36m-x86_64-linux-gnu.so
ase:    /home/murakami/.local/lib/python3.6/site-packages/ase (version 3.16.2)
numpy:  /home/murakami/.local/lib/python3.6/site-packages/numpy (version 1.15.2)
scipy:  /home/murakami/.local/lib/python3.6/site-packages/scipy (version 1.1.0)
units:  Angstrom and eV
cores:  1

Input parameters:
  kpts: {size: (1, 1, 1)}
  maxiter: 300
  xc: PBE

System changes: positions, numbers, cell, pbc, initial_charges, initial_magmoms 

Initialize ...

Fe-setup:
  name: Iron
  id: 37abbd8d6c3c35915a9b583b742da910
  Z: 26
  valence: 8
  core: 18
  charge: 0.0
  file: /home/murakami/Public/gpaw-setups-0.9.20000/Fe.PBE.gz
  cutoffs: 1.06(comp), 2.06(filt), 2.67(core), lmax=2
  valence states:
                energy  radius
    4s(2.00)    -5.291   1.164
    4p(0.00)    -1.326   1.058
    3d(6.00)    -7.505   1.058
    *s          21.920   1.164
    *p          25.885   1.058
    *d          19.706   1.058

  Using partial waves for Fe as LCAO basis

O-setup:
  name: Oxygen
  id: 32ecd46bf208036f09c70b0ec9a88b78
  Z: 8
  valence: 6
  core: 2
  charge: 0.0
  file: /home/murakami/Public/gpaw-setups-0.9.20000/O.PBE.gz
  cutoffs: 0.67(comp), 1.17(filt), 0.83(core), lmax=2
  valence states:
                energy  radius
    2s(2.00)   -23.961   0.688
    2p(4.00)    -9.029   0.598
    *s           3.251   0.688
    *p          18.182   0.598
    *d           0.000   0.619

  Using partial waves for O as LCAO basis

F-setup:
  name: Fluorine
  id: 9cd46ba2a61e170ad72278be75b55cc0
  Z: 9
  valence: 7
  core: 2
  charge: 0.0
  file: /home/murakami/Public/gpaw-setups-0.9.20000/F.PBE.gz
  cutoffs: 0.64(comp), 1.14(filt), 0.74(core), lmax=2
  valence states:
                energy  radius
    2s(2.00)   -29.898   0.635
    2p(5.00)   -11.110   0.635
    *s          -2.687   0.635
    *p          16.102   0.635
    *d           0.000   0.635

  Using partial waves for F as LCAO basis

Reference energy: -479224.937077

Spin-paired calculation

Occupation numbers:
  Fermi-Dirac: width=0.1000 eV

Convergence criteria:
  Maximum total energy change: 0.0005 eV / electron
  Maximum integral of absolute density change: 0.0001 electrons
  Maximum integral of absolute eigenstate change: 4e-08 eV^2
  Maximum number of iterations: 300

Symmetries present (total): 1

  ( 1  0  0)
  ( 0  1  0)
  ( 0  0  1)

1 k-point (Gamma)
1 k-point in the irreducible part of the Brillouin zone
       k-points in crystal coordinates                weights
   0:     0.00000000    0.00000000    0.00000000          1/1

Wave functions: Uniform real-space grid
  Kinetic energy operator: 6*3+1=19 point O(h^6) finite-difference Laplacian
  ScaLapack parameters: grid=1x1, blocksize=None 

Eigensolver
   Davidson(niter=1, smin=None, normalize=True) 

Densities:
  Coarse grid: 16*104*32 grid
  Fine grid: 32*208*64 grid
  Total Charge: 0.000000 

Density mixing:
  Method: separate
  Backend: pulay
  Linear mixing parameter: 0.05
  Mixing with 5 old densities
  Damping of long wave oscillations: 50 

Hamiltonian:
  XC and Coulomb potentials evaluated on a 32*208*64 grid
  Using the PBE Exchange-Correlation functional
  Interpolation: tri-quintic (5. degree polynomial)
  Poisson solver: Jacobi solver with 5 multi-grid levels
    Coarsest grid: 2 x 13 x 4 points
    Stencil: 6*3+1=19 point O(h^6) finite-difference Laplacian
    Max iterations: 1000
    Tolerance: 2.000000e-10 

Memory estimate:
  Process memory now: 1103.97 MiB
  Calculator: 269.53 MiB
    Density: 69.97 MiB
      Arrays: 10.56 MiB
      Localized functions: 55.35 MiB
      Mixer: 4.06 MiB
    Hamiltonian: 19.00 MiB
      Arrays: 6.91 MiB
      XC: 0.00 MiB
      Poisson: 7.89 MiB
      vbar: 4.20 MiB
    Wavefunctions: 180.56 MiB
      Arrays psit_nG: 82.88 MiB
      Eigensolver: 88.09 MiB
      Projections: 0.82 MiB
      Projectors: 8.78 MiB

Total number of cores used: 1

Number of atoms: 36
Number of atomic orbitals: 204
Number of bands in calculation: 204
Bands to converge: occupied states only
Number of valence electrons: 262

... initialized

Initializing position-dependent things.

Density initialized from atomic densities
Creating initial wave functions:
  204 bands from LCAO basis set

              .-------.  
             /|  F    |  
            / |       |  
           /  |       |  
          / F |       |  
         /    |  F    |  
        /   Fe|       |  
       /  FFe |F      |  
      / O     Fe------.  
     /      F/       /   
    /  Fe F F   Fe  /    
   / F     F   F   /     
  /F  F   /       Fe     
 *     F Fe  F   /       
 |      F    F  /        
 F Fe  /       /         
 |    F   F   /          
 | F Fe      /           
 O  /   F   /            
 | /   Fe  /             
 |/       /              
 Fe------*               

Positions:
   0 Fe     0.000000    3.425973    3.405553    ( 0.0000,  0.0000,  0.0000)
   1 Fe     0.000000   17.123411    3.405553    ( 0.0000,  0.0000,  0.0000)
   2 Fe    -0.003604   13.700665    0.009448    ( 0.0000,  0.0000,  0.0000)
   3 Fe     0.000000    6.848719    0.009448    ( 0.0000,  0.0000,  0.0000)
   4 Fe     1.626314    3.411629    0.000027    ( 0.0000,  0.0000,  0.0000)
   5 Fe     1.626314   17.137755    0.000027    ( 0.0000,  0.0000,  0.0000)
   6 Fe     1.626314   13.686321    3.396133    ( 0.0000,  0.0000,  0.0000)
   7 Fe     1.626314    6.863063    3.396133    ( 0.0000,  0.0000,  0.0000)
   8 Fe     0.000000    0.000000    0.082607    ( 0.0000,  0.0000,  0.0000)
   9 Fe     0.000000   10.274692    3.478712    ( 0.0000,  0.0000,  0.0000)
  10 Fe     1.626314    0.000000    3.208640    ( 0.0000,  0.0000,  0.0000)
  11 Fe     1.626314   10.274692    6.604746    ( 0.0000,  0.0000,  0.0000)
  12 O      0.000000    0.000000    2.135213    ( 0.0000,  0.0000,  0.0000)
  13 O      0.027524   10.274692    5.531319    ( 0.0000,  0.0000,  0.0000)
  14 F      0.000000    3.455769    1.380850    ( 0.0000,  0.0000,  0.0000)
  15 F      0.000000   17.004924    1.380850    ( 0.0000,  0.0000,  0.0000)
  16 F      0.000000   13.730461    4.776955    ( 0.0000,  0.0000,  0.0000)
  17 F      0.000000    6.818923    4.776955    ( 0.0000,  0.0000,  0.0000)
  18 F      0.000000    3.460146    5.429327    ( 0.0000,  0.0000,  0.0000)
  19 F      0.000000   17.089238    5.468891    ( 0.0000,  0.0000,  0.0000)
  20 F      0.000000   13.734838    2.033221    ( 0.0000,  0.0000,  0.0000)
  21 F     -0.003662    6.814546    2.033221    ( 0.0000,  0.0000,  0.0000)
  22 F      1.626314    1.405002    6.767331    ( 0.0000,  0.0000,  0.0000)
  23 F      1.626314   19.144382    6.767331    ( 0.0000,  0.0000,  0.0000)
  24 F      1.626314   11.679694    3.371226    ( 0.0000,  0.0000,  0.0000)
  25 F      1.626314    8.869690    3.371226    ( 0.0000,  0.0000,  0.0000)
  26 F      1.626314    2.017621    3.434678    ( 0.0000,  0.0000,  0.0000)
  27 F      1.626314   18.531763    3.434678    ( 0.0000,  0.0000,  0.0000)
  28 F      1.626314   12.292313    0.038573    ( 0.0000,  0.0000,  0.0000)
  29 F      1.626314    8.257071    0.038573    ( 0.0000,  0.0000,  0.0000)
  30 F      1.626314    4.809789    3.406464    ( 0.0000,  0.0000,  0.0000)
  31 F      1.626314   15.739595    3.406464    ( 0.0000,  0.0000,  0.0000)
  32 F      1.626314   15.084481    0.010358    ( 0.0000,  0.0000,  0.0000)
  33 F      1.626314    5.464903    0.010358    ( 0.0000,  0.0000,  0.0000)
  34 F      0.000000    0.000000    4.718827    ( 0.0000,  0.0000,  0.0000)
  35 F      0.000000   10.274692    1.322722    ( 0.0000,  0.0000,  0.0000)

Unit cell:
           periodic     x           y           z      points  spacing
  1. axis:    yes    3.252628    0.000000    0.000000    16     0.2033
  2. axis:    yes    0.000000   20.549384    0.000000   104     0.1976
  3. axis:    yes    0.000000    0.000000    6.792211    32     0.2123

  Lengths:   3.252628  20.549384   6.792211
  Angles:   90.000000  90.000000  90.000000

Effective grid spacing dv^(1/3) = 0.2043

                     log10-error:    total        iterations:
           time      wfs    density  energy       fermi  poisson
iter:   1  02:45:27  +1.74   +inf  -213.409756    3      19     
iter:   2  02:45:35  +0.20   +inf  -214.306788    3             
iter:   3  02:45:43  -0.38   +inf  -214.565712    2             
iter:   4  02:45:54  -0.64  -1.12  -212.320425    3      9      
iter:   5  02:46:05  -0.26  -1.16  -227.278985    34     10     
iter:   6  02:46:15  -0.23  -1.16  -267.848092    32     15     
iter:   7  02:46:26  -0.32  -1.08  -229.362240    35     15     
iter:   8  02:46:37  -0.59  -1.17  -213.326618    3      14     
iter:   9  02:46:48  -0.52  -1.31  -249.296997    35     15     
iter:  10  02:46:59  -0.62  -1.15  -220.222105    4      14     
iter:  11  02:47:10  -0.91  -1.24  -208.825837    3      13     
iter:  12  02:47:20  -1.38  -1.39  -206.839449    3      11     
iter:  13  02:47:31  -1.63  -1.45  -206.415085    3      9      
iter:  14  02:47:43  -1.94  -1.47  -208.932033    3      11     
iter:  15  02:47:53  -1.51  -1.40  -209.442797    3      13     
iter:  16  02:48:04  -1.51  -1.39  -208.481948    3      12     
iter:  17  02:48:15  -1.49  -1.43  -213.056761    4      13     
iter:  18  02:48:25  -1.37  -1.32  -206.954745    4      13     
iter:  19  02:48:36  -1.73  -1.49  -207.046643    3      9      
iter:  20  02:48:47  -2.10  -1.49  -206.433899    3      9      
iter:  21  02:48:58  -2.16  -1.54  -207.704300    3      11     
iter:  22  02:49:09  -1.79  -1.50  -210.882459    4      12     
iter:  23  02:49:20  -1.46  -1.43  -207.135475    3      12     
iter:  24  02:49:31  -1.41  -1.61  -207.470458    3      11     
iter:  25  02:49:42  -1.44  -1.57  -208.012414    3      11     
iter:  26  02:49:53  -1.46  -1.60  -208.979945    3      12     
iter:  27  02:50:03  -1.76  -1.53  -206.847137    3      11     
iter:  28  02:50:14  -2.21  -1.65  -206.370490    3      10     
iter:  29  02:50:24  -2.20  -1.72  -206.497211    3      9      
iter:  30  02:50:35  -2.16  -1.71  -206.997690    3      8      
iter:  31  02:50:45  -2.05  -1.67  -206.696278    3      10     
iter:  32  02:50:56  -1.95  -1.77  -206.954352    3      10     
iter:  33  02:51:07  -1.64  -1.76  -210.961510    3      12     
iter:  34  02:51:17  -1.52  -1.48  -207.469702    3      12     
iter:  35  02:51:28  -1.90  -1.72  -206.498526    2      10     
iter:  36  02:51:38  -2.13  -1.84  -206.417250    3      8      
iter:  37  02:51:49  -2.65  -1.85  -206.298285    2      10     
iter:  38  02:51:59  -2.77  -1.88  -206.398420    3      9      
iter:  39  02:52:10  -2.06  -1.86  -208.554075    3      11     
iter:  40  02:52:21  -1.79  -1.62  -206.940178    3      12     
iter:  41  02:52:31  -2.25  -1.80  -206.297055    3      10     
iter:  42  02:52:42  -2.62  -1.90  -206.258367    3      7      
iter:  43  02:52:53  -2.95  -1.93  -206.295568    2      8      
iter:  44  02:53:04  -3.17  -1.91  -206.208580    2      8      
iter:  45  02:53:14  -2.02  -1.94  -209.929970    3      12     
iter:  46  02:53:25  -1.77  -1.55  -206.377496    3      12     
iter:  47  02:53:36  -2.27  -1.93  -206.598153    3      7      
iter:  48  02:53:48  -2.31  -1.89  -206.502524    2      9      
iter:  49  02:54:01  -2.44  -1.93  -206.928237    2      11     
iter:  50  02:54:13  -2.45  -1.83  -206.290073    2      10     
iter:  51  02:54:26  -2.86  -1.98  -206.217032    3      8      
iter:  52  02:54:36  -2.24  -2.09  -206.507948    3      7      
iter:  53  02:54:47  -2.13  -1.96  -206.705559    3      10     
iter:  54  02:54:58  -2.33  -1.93  -206.425935    2      10     
iter:  55  02:55:08  -2.56  -2.07  -206.358236    3      9      
iter:  56  02:55:19  -2.08  -2.18  -207.597777    2      11     
iter:  57  02:55:29  -2.07  -1.81  -206.139624    2      10     
iter:  58  02:55:41  -3.00  -2.26  -206.134841    2      6      
iter:  59  02:55:51  -3.17  -2.29  -206.180821    2      6      
iter:  60  02:56:01  -3.10  -2.29  -206.189159    2      7      
iter:  61  02:56:12  -2.80  -2.27  -206.329812    2      8      
iter:  62  02:56:22  -2.39  -2.22  -206.863495    2      10     
iter:  63  02:56:33  -2.38  -1.98  -206.289788    2      10     
iter:  64  02:56:44  -2.69  -2.24  -206.147547    2      7      
iter:  65  02:56:56  -3.51  -2.39  -206.128650    2      5      
iter:  66  02:57:10  -4.01  -2.42  -206.127056    2      5      
iter:  67  02:57:24  -3.56  -2.43  -206.169543    2      7      
iter:  68  02:57:39  -2.47  -2.38  -207.668325    3      11     
iter:  69  02:57:55  -2.36  -1.83  -206.297729    2      11     
iter:  70  02:58:10  -2.85  -2.31  -206.157263    2      8      
iter:  71  02:58:26  -2.86  -2.50  -206.161581    2      7      
iter:  72  02:58:41  -3.06  -2.45  -206.145676    2      6      
iter:  73  02:58:56  -3.79  -2.56  -206.107396    2      5      
iter:  74  02:59:11  -3.50  -2.71  -206.240046    2      8      
iter:  75  02:59:26  -3.47  -2.34  -206.109964    2      8      
iter:  76  02:59:41  -3.73  -2.73  -206.122405    2      6      
iter:  77  02:59:56  -3.46  -2.61  -206.139952    2      7      
iter:  78  03:00:11  -3.42  -2.59  -206.114574    2      5      
iter:  79  03:00:25  -3.78  -2.72  -206.099060    2      5      
iter:  80  03:00:40  -4.39  -2.83  -206.107199    2      5      
iter:  81  03:00:54  -4.45  -2.79  -206.100095    2      5      
iter:  82  03:01:09  -4.56  -2.83  -206.094513    2      5      
iter:  83  03:01:24  -4.23  -2.85  -206.107144    2      5      
iter:  84  03:01:38  -4.16  -2.81  -206.108132    2      6      
iter:  85  03:01:54  -3.70  -2.81  -206.108363    2      5      
iter:  86  03:02:08  -3.86  -2.82  -206.109244    2      6      
iter:  87  03:02:23  -3.88  -2.74  -206.113426    2      7      
iter:  88  03:02:37  -4.13  -2.74  -206.108574    2      6      
iter:  89  03:02:52  -4.27  -2.91  -206.101630    2      5      
iter:  90  03:03:04  -4.34  -2.86  -206.098540    2      5      
iter:  91  03:03:17  -4.22  -2.95  -206.097916    2      4      
iter:  92  03:03:32  -4.45  -3.01  -206.098860    2      5      
iter:  93  03:03:45  -4.11  -2.97  -206.125678    2      6      
iter:  94  03:04:00  -4.14  -2.66  -206.099687    2      6      
iter:  95  03:04:14  -4.63  -3.00  -206.099480    2      5      
iter:  96  03:04:28  -4.70  -3.00  -206.094436    2      5      
iter:  97  03:04:42  -4.47  -3.08  -206.098458    2      4      
iter:  98  03:04:53  -4.56  -3.07  -206.103032    2      4      
iter:  99  03:05:03  -4.50  -3.06  -206.099199    2      4      
iter: 100  03:05:14  -4.46  -3.11  -206.100212    2      5      
iter: 101  03:05:29  -4.58  -2.99  -206.099728    2      5      
iter: 102  03:05:43  -4.53  -2.97  -206.100584    2      5      
iter: 103  03:05:58  -4.39  -3.13  -206.096770    2      4      
iter: 104  03:06:12  -4.65  -3.13  -206.095791    2      4      
iter: 105  03:06:26  -5.16  -3.17  -206.096220    2      4      
iter: 106  03:06:41  -4.91  -3.20  -206.096609    2      4      
iter: 107  03:06:56  -4.84  -3.18  -206.099728    2      5      
iter: 108  03:07:08  -4.71  -3.03  -206.096539    2      5      
iter: 109  03:07:19  -4.63  -3.24  -206.097158    2      4      
iter: 110  03:07:29  -4.47  -3.25  -206.103448    2      5      
iter: 111  03:07:40  -4.53  -3.01  -206.095326    2      5      
iter: 112  03:07:51  -4.84  -3.32  -206.097415    2      4      
iter: 113  03:08:01  -5.29  -3.29  -206.096196    2      3      
iter: 114  03:08:12  -5.78  -3.42  -206.095654    2      3      
iter: 115  03:08:22  -5.64  -3.45  -206.096524    2      3      
iter: 116  03:08:33  -5.26  -3.41  -206.097385    2      4      
iter: 117  03:08:43  -5.10  -3.22  -206.097473    2      4      
iter: 118  03:08:54  -4.97  -3.42  -206.096714    2      4      
iter: 119  03:09:05  -4.85  -3.31  -206.095004    2      4      
iter: 120  03:09:15  -5.32  -3.46  -206.096848    2      4      
iter: 121  03:09:26  -5.59  -3.40  -206.095779    2      3      
iter: 122  03:09:36  -5.69  -3.53  -206.096707    2      3      
iter: 123  03:09:47  -5.61  -3.46  -206.095029    2      3      
iter: 124  03:09:57  -5.87  -3.59  -206.095732    2      4      
iter: 125  03:10:08  -5.09  -3.61  -206.098816    2      4      
iter: 126  03:10:19  -4.98  -3.35  -206.097100    2      5      
iter: 127  03:10:29  -5.03  -3.39  -206.095694    2      5      
iter: 128  03:10:40  -5.38  -3.54  -206.095258    2      4      
iter: 129  03:10:51  -5.31  -3.54  -206.096793    2      3      
iter: 130  03:11:01  -5.76  -3.66  -206.095902    2      3      
iter: 131  03:11:12  -5.60  -3.73  -206.095098    2      3      
iter: 132  03:11:22  -5.66  -3.62  -206.095511    2      4      
iter: 133  03:11:33  -5.11  -3.94  -206.100017    2      4      
iter: 134  03:11:44  -5.05  -3.21  -206.096114    2      4      
iter: 135  03:11:54  -5.65  -3.93  -206.095447    2      3      
iter: 136  03:12:05  -6.01  -3.96  -206.095465    2      2      
iter: 137  03:12:15  -6.47  -4.19  -206.095706    2      2      
iter: 138  03:12:26  -6.67  -4.11  -206.095907    2      2      
iter: 139  03:12:36  -6.80  -4.15  -206.095600    2      2      
iter: 140  03:12:47  -7.07  -4.19  -206.095705    1      2      
iter: 141  03:12:57  -6.72  -4.25  -206.095654    2      2      
iter: 142  03:13:08  -6.66  -4.14  -206.095482    2      2      
iter: 143  03:13:18  -6.80  -4.18  -206.095795    2      2      
iter: 144  03:13:29  -7.09  -4.20  -206.095659    2      2      
iter: 145  03:13:39  -7.56  -4.31  -206.095788    2      2      

Converged after 145 iterations.

Dipole moment: (-25.572886, -31.042682, -33.938038) |e|*Ang

Energy contributions relative to reference atoms: (reference = -479224.937077)

Kinetic:       +175.340773
Potential:     -179.532347
External:        +0.000000
XC:            -212.554081
Entropy (-ST):   -1.406119
Local:          +11.352926
--------------------------
Free energy:   -206.798847
Extrapolated:  -206.095788

Fermi level: 3.83717

 Band  Eigenvalues  Occupancy
    0    -20.78824    2.00000
    1    -20.77778    2.00000
    2    -20.64204    2.00000
    3    -20.62151    2.00000
    4    -20.41370    2.00000
    5    -20.39740    2.00000
    6    -20.38295    2.00000
    7    -20.35090    2.00000
    8    -20.34450    2.00000
    9    -20.33307    2.00000
   10    -20.32961    2.00000
   11    -20.32501    2.00000
   12    -20.26700    2.00000
   13    -20.24040    2.00000
   14    -20.20686    2.00000
   15    -20.19384    2.00000
   16    -20.18618    2.00000
   17    -20.17828    2.00000
   18    -20.16648    2.00000
   19    -20.14264    2.00000
   20    -19.02208    2.00000
   21    -19.01804    2.00000
   22    -14.50634    2.00000
   23    -14.50629    2.00000
   24     -4.27951    2.00000
   25     -4.19020    2.00000
   26     -4.01664    2.00000
   27     -3.94429    2.00000
   28     -3.72229    2.00000
   29     -3.53761    2.00000
   30     -3.49061    2.00000
   31     -3.44644    2.00000
   32     -3.32980    2.00000
   33     -3.15323    2.00000
   34     -2.72347    2.00000
   35     -2.69795    2.00000
   36     -2.61066    2.00000
   37     -2.56769    2.00000
   38     -2.48222    2.00000
   39     -2.47063    2.00000
   40     -2.45292    2.00000
   41     -2.41386    2.00000
   42     -2.39691    2.00000
   43     -2.39533    2.00000
   44     -2.39294    2.00000
   45     -2.37059    2.00000
   46     -2.33472    2.00000
   47     -2.32795    2.00000
   48     -2.31660    2.00000
   49     -2.29746    2.00000
   50     -2.24627    2.00000
   51     -2.22151    2.00000
   52     -2.21577    2.00000
   53     -2.19742    2.00000
   54     -2.19215    2.00000
   55     -2.19127    2.00000
   56     -2.18363    2.00000
   57     -2.18228    2.00000
   58     -2.14364    2.00000
   59     -2.11508    2.00000
   60     -2.02027    2.00000
   61     -1.94568    2.00000
   62     -1.93990    2.00000
   63     -1.78771    2.00000
   64     -1.70876    2.00000
   65     -1.69206    2.00000
   66     -1.65673    2.00000
   67     -1.61357    2.00000
   68     -1.59081    2.00000
   69     -1.58752    2.00000
   70     -1.56064    2.00000
   71     -1.47942    2.00000
   72     -1.37851    2.00000
   73     -1.34123    2.00000
   74     -1.32069    2.00000
   75     -1.28529    2.00000
   76     -1.26801    2.00000
   77     -1.21742    2.00000
   78     -1.21739    2.00000
   79     -1.21565    2.00000
   80     -1.18636    2.00000
   81     -1.13631    2.00000
   82     -1.13113    2.00000
   83     -1.07398    2.00000
   84     -0.96266    2.00000
   85     -0.93135    2.00000
   86     -0.76931    2.00000
   87     -0.71201    2.00000
   88     -0.12162    2.00000
   89     -0.11767    2.00000
   90     -0.10720    2.00000
   91     -0.06481    2.00000
   92      0.08569    2.00000
   93      0.09082    2.00000
   94      0.65192    2.00000
   95      0.66045    2.00000
   96      2.82071    1.99992
   97      2.85761    1.99989
   98      2.88802    1.99985
   99      2.90427    1.99982
  100      2.91675    1.99980
  101      2.95806    1.99970
  102      2.97077    1.99965
  103      2.97670    1.99963
  104      2.98643    1.99960
  105      3.00327    1.99952
  106      3.05541    1.99920
  107      3.06303    1.99913
  108      3.15927    1.99773
  109      3.16257    1.99765
  110      3.16474    1.99760
  111      3.18895    1.99694
  112      3.22496    1.99562
  113      3.22661    1.99555
  114      3.23303    1.99525
  115      3.23709    1.99506
  116      3.24559    1.99462
  117      3.29443    1.99125
  118      3.29844    1.99089
  119      3.30776    1.99001
  120      3.33979    1.98626
  121      3.35210    1.98447
  122      3.36129    1.98299
  123      3.47045    1.95017
  124      3.49454    1.93703
  125      3.56797    1.87310
  126      3.63383    1.76852
  127      3.65395    1.72403
  128      3.75276    1.39863
  129      3.76632    1.34011
  130      3.79499    1.20779
  131      3.85409    0.91558
  132      3.91136    0.64516
  133      3.95944    0.45490
  134      3.97747    0.39468
  135      4.08463    0.15531
  136      4.15273    0.08174
  137      4.20997    0.04695
  138      4.22657    0.03991
  139      4.23111    0.03818
  140      4.24476    0.03339
  141      4.25170    0.03118
  142      4.25328    0.03070
  143      4.34537    0.01234
  144      4.35399    0.01132
  145      4.44407    0.00462
  146      4.44579    0.00454
  147      4.44713    0.00448
  148      4.46831    0.00362
  149      4.47528    0.00338
  150      4.59747    0.00100
  151      4.96303    0.00003
  152      5.14126    0.00000
  153      5.26689    0.00000
  154      5.35415    0.00000
  155      5.35744    0.00000
  156      5.98936    0.00000
  157      6.48210    0.00000
  158      6.80153    0.00000
  159      8.10140    0.00000
  160      8.32567    0.00000
  161      9.63051    0.00000
  162      9.94229    0.00000
  163     10.06766    0.00000
  164     10.32386    0.00000
  165     10.33336    0.00000
  166     10.38297    0.00000
  167     10.46072    0.00000
  168     10.71259    0.00000
  169     10.73397    0.00000
  170     10.90800    0.00000
  171     11.03788    0.00000
  172     11.39269    0.00000
  173     11.52099    0.00000
  174     11.64947    0.00000
  175     12.04769    0.00000
  176     12.10297    0.00000
  177     12.83929    0.00000
  178     13.10600    0.00000
  179     13.39393    0.00000
  180     14.36126    0.00000
  181     14.50547    0.00000
  182     14.96127    0.00000
  183     15.02483    0.00000
  184     15.13477    0.00000
  185     15.47208    0.00000
  186     15.63672    0.00000
  187     15.81013    0.00000
  188     16.21164    0.00000
  189     16.29206    0.00000
  190     16.43482    0.00000
  191     16.45758    0.00000
  192     16.47409    0.00000
  193     16.81046    0.00000
  194     16.88376    0.00000
  195     16.91014    0.00000
  196     16.97639    0.00000
  197     16.99708    0.00000
  198     17.08904    0.00000
  199     17.12037    0.00000
  200     17.33488    0.00000
  201     17.38554    0.00000
  202     17.42238    0.00000
  203     17.46164    0.00000

Timing:                              incl.     excl.
-----------------------------------------------------------
Hamiltonian:                         2.850     0.000   0.0% |
 Atomic:                             1.615     0.003   0.0% |
  XC Correction:                     1.612     1.612   0.1% |
 Calculate atomic Hamiltonians:      0.014     0.014   0.0% |
 Communicate:                        0.000     0.000   0.0% |
 Hartree integrate/restrict:         0.005     0.005   0.0% |
 Initialize Hamiltonian:             0.000     0.000   0.0% |
 Poisson:                            0.885     0.885   0.1% |
 XC 3D grid:                         0.327     0.327   0.0% |
 vbar:                               0.003     0.003   0.0% |
LCAO initialization:                10.844     0.228   0.0% |
 LCAO eigensolver:                   1.418     0.000   0.0% |
  Calculate projections:             0.008     0.008   0.0% |
  DenseAtomicCorrection:             0.008     0.008   0.0% |
  Distribute overlap matrix:         0.000     0.000   0.0% |
  Orbital Layouts:                   0.025     0.025   0.0% |
  Potential matrix:                  1.376     1.376   0.1% |
 LCAO to grid:                       8.243     8.243   0.5% |
 Set positions (LCAO WFS):           0.955     0.000   0.0% |
  Basic WFS set positions:           0.001     0.001   0.0% |
  Basis functions set positions:     0.000     0.000   0.0% |
  TCI: Calculate S, T, P:            0.953     0.953   0.1% |
SCF-cycle:                        1703.018     0.127   0.0% |
 Davidson:                        1335.470   286.591  16.7% |------|
  Apply hamiltonian:                32.510    32.510   1.9% ||
  Subspace diag:                   360.727     0.026   0.0% |
   calc_h_matrix:                  142.978   110.362   6.4% |--|
    Apply hamiltonian:              32.616    32.616   1.9% ||
   diagonalize:                      1.886     1.886   0.1% |
   rotate_psi:                     215.838   215.838  12.6% |----|
  calc. matrices:                  433.248   400.259  23.3% |--------|
   Apply hamiltonian:               32.990    32.990   1.9% ||
  diagonalize:                       6.448     6.448   0.4% |
  rotate_psi:                      215.946   215.946  12.6% |----|
 Density:                            7.189     0.004   0.0% |
  Atomic density matrices:           0.568     0.568   0.0% |
  Mix:                               3.720     3.720   0.2% |
  Multipole moments:                 0.141     0.141   0.0% |
  Pseudo density:                    2.757     2.753   0.2% |
   Symmetrize density:               0.003     0.003   0.0% |
 Hamiltonian:                      358.264     0.018   0.0% |
  Atomic:                          251.524     0.547   0.0% |
   XC Correction:                  250.978   250.978  14.6% |-----|
  Calculate atomic Hamiltonians:     2.239     2.239   0.1% |
  Communicate:                       0.001     0.001   0.0% |
  Hartree integrate/restrict:        0.983     0.983   0.1% |
  Poisson:                          51.593    51.593   3.0% ||
  XC 3D grid:                       51.420    51.420   3.0% ||
  vbar:                              0.485     0.485   0.0% |
 Orthonormalize:                     1.967     0.000   0.0% |
  calc_s_matrix:                     0.450     0.450   0.0% |
  inverse-cholesky:                  0.002     0.002   0.0% |
  projections:                       0.801     0.801   0.0% |
  rotate_psi_s:                      0.713     0.713   0.0% |
Set symmetry:                        0.001     0.001   0.0% |
Other:                               1.008     1.008   0.1% |
-----------------------------------------------------------
Total:                                      1717.721 100.0%

Memory usage: 1.08 GiB
Date: Sat Mar 30 03:13:39 2019
