
  ___ ___ ___ _ _ _  
 |   |   |_  | | | | 
 | | | | | . | | | | 
 |__ |  _|___|_____|  1.4.0
 |___|_|             

User:   murakami@tssm1.eng.shizuoka.ac.jp
Date:   Fri Mar 29 22:51:16 2019
Arch:   x86_64
Pid:    31289
Python: 3.6.5
gpaw:   /home/murakami/.local/lib/python3.6/site-packages/gpaw
_gpaw:  /home/murakami/.local/lib/python3.6/site-packages/
        _gpaw.cpython-36m-x86_64-linux-gnu.so
ase:    /home/murakami/.local/lib/python3.6/site-packages/ase (version 3.16.2)
numpy:  /home/murakami/.local/lib/python3.6/site-packages/numpy (version 1.15.2)
scipy:  /home/murakami/.local/lib/python3.6/site-packages/scipy (version 1.1.0)
units:  Angstrom and eV
cores:  1

Input parameters:
  kpts: {size: (1, 1, 1)}
  maxiter: 300
  xc: PBE

System changes: positions, numbers, cell, pbc, initial_charges, initial_magmoms 

Initialize ...

Fe-setup:
  name: Iron
  id: 37abbd8d6c3c35915a9b583b742da910
  Z: 26
  valence: 8
  core: 18
  charge: 0.0
  file: /home/murakami/Public/gpaw-setups-0.9.20000/Fe.PBE.gz
  cutoffs: 1.06(comp), 2.06(filt), 2.67(core), lmax=2
  valence states:
                energy  radius
    4s(2.00)    -5.291   1.164
    4p(0.00)    -1.326   1.058
    3d(6.00)    -7.505   1.058
    *s          21.920   1.164
    *p          25.885   1.058
    *d          19.706   1.058

  Using partial waves for Fe as LCAO basis

O-setup:
  name: Oxygen
  id: 32ecd46bf208036f09c70b0ec9a88b78
  Z: 8
  valence: 6
  core: 2
  charge: 0.0
  file: /home/murakami/Public/gpaw-setups-0.9.20000/O.PBE.gz
  cutoffs: 0.67(comp), 1.17(filt), 0.83(core), lmax=2
  valence states:
                energy  radius
    2s(2.00)   -23.961   0.688
    2p(4.00)    -9.029   0.598
    *s           3.251   0.688
    *p          18.182   0.598
    *d           0.000   0.619

  Using partial waves for O as LCAO basis

F-setup:
  name: Fluorine
  id: 9cd46ba2a61e170ad72278be75b55cc0
  Z: 9
  valence: 7
  core: 2
  charge: 0.0
  file: /home/murakami/Public/gpaw-setups-0.9.20000/F.PBE.gz
  cutoffs: 0.64(comp), 1.14(filt), 0.74(core), lmax=2
  valence states:
                energy  radius
    2s(2.00)   -29.898   0.635
    2p(5.00)   -11.110   0.635
    *s          -2.687   0.635
    *p          16.102   0.635
    *d           0.000   0.635

  Using partial waves for F as LCAO basis

Reference energy: -479224.937077

Spin-paired calculation

Occupation numbers:
  Fermi-Dirac: width=0.1000 eV

Convergence criteria:
  Maximum total energy change: 0.0005 eV / electron
  Maximum integral of absolute density change: 0.0001 electrons
  Maximum integral of absolute eigenstate change: 4e-08 eV^2
  Maximum number of iterations: 300

Symmetries present (total): 1

  ( 1  0  0)
  ( 0  1  0)
  ( 0  0  1)

1 k-point (Gamma)
1 k-point in the irreducible part of the Brillouin zone
       k-points in crystal coordinates                weights
   0:     0.00000000    0.00000000    0.00000000          1/1

Wave functions: Uniform real-space grid
  Kinetic energy operator: 6*3+1=19 point O(h^6) finite-difference Laplacian
  ScaLapack parameters: grid=1x1, blocksize=None 

Eigensolver
   Davidson(niter=1, smin=None, normalize=True) 

Densities:
  Coarse grid: 16*104*32 grid
  Fine grid: 32*208*64 grid
  Total Charge: 0.000000 

Density mixing:
  Method: separate
  Backend: pulay
  Linear mixing parameter: 0.05
  Mixing with 5 old densities
  Damping of long wave oscillations: 50 

Hamiltonian:
  XC and Coulomb potentials evaluated on a 32*208*64 grid
  Using the PBE Exchange-Correlation functional
  Interpolation: tri-quintic (5. degree polynomial)
  Poisson solver: Jacobi solver with 5 multi-grid levels
    Coarsest grid: 2 x 13 x 4 points
    Stencil: 6*3+1=19 point O(h^6) finite-difference Laplacian
    Max iterations: 1000
    Tolerance: 2.000000e-10 

Memory estimate:
  Process memory now: 1103.97 MiB
  Calculator: 269.53 MiB
    Density: 69.97 MiB
      Arrays: 10.56 MiB
      Localized functions: 55.35 MiB
      Mixer: 4.06 MiB
    Hamiltonian: 19.00 MiB
      Arrays: 6.91 MiB
      XC: 0.00 MiB
      Poisson: 7.89 MiB
      vbar: 4.20 MiB
    Wavefunctions: 180.56 MiB
      Arrays psit_nG: 82.88 MiB
      Eigensolver: 88.09 MiB
      Projections: 0.82 MiB
      Projectors: 8.78 MiB

Total number of cores used: 1

Number of atoms: 36
Number of atomic orbitals: 204
Number of bands in calculation: 204
Bands to converge: occupied states only
Number of valence electrons: 262

... initialized

Initializing position-dependent things.

Density initialized from atomic densities
Creating initial wave functions:
  204 bands from LCAO basis set

              .-------.  
             /|  F    |  
            / |       |  
           /  |F      |  
          / F |       |  
         /    |  F    |  
        /   Fe|       |  
       /  FFe |F      |  
      /O      Fe------.  
     /      F/       /   
    /  Fe   F   FeF /    
   / F     F       /     
  /F  F   Fe      /      
 *     F Fe  F   /       
 |   F  F       /        
 F Fe  /       /         
 |    F   F   /          
 | F Fe      /           
 O  /   F   /            
 | /   Fe  /             
 |/       /              
 Fe------*               

Positions:
   0 Fe     0.000000    3.425171    3.405553    ( 0.0000,  0.0000,  0.0000)
   1 Fe     0.000000   17.123411    3.405553    ( 0.0000,  0.0000,  0.0000)
   2 Fe     0.000000   13.700665    0.009448    ( 0.0000,  0.0000,  0.0000)
   3 Fe     0.000000    6.848719    0.010182    ( 0.0000,  0.0000,  0.0000)
   4 Fe     1.626314    3.411629    0.000027    ( 0.0000,  0.0000,  0.0000)
   5 Fe     1.626314   17.137755    0.000027    ( 0.0000,  0.0000,  0.0000)
   6 Fe     1.626314   13.686321    3.396133    ( 0.0000,  0.0000,  0.0000)
   7 Fe     1.626314    6.863063    3.396133    ( 0.0000,  0.0000,  0.0000)
   8 Fe     0.000000    0.000000    0.082607    ( 0.0000,  0.0000,  0.0000)
   9 Fe     0.000000   10.274692    3.478712    ( 0.0000,  0.0000,  0.0000)
  10 Fe     1.626314    0.000000    3.208640    ( 0.0000,  0.0000,  0.0000)
  11 Fe     1.626314   10.274692    6.604746    ( 0.0000,  0.0000,  0.0000)
  12 O      0.000000    0.000000    2.135213    ( 0.0000,  0.0000,  0.0000)
  13 O      0.000000   10.274692    5.531319    ( 0.0000,  0.0000,  0.0000)
  14 F      0.000000    3.455769    1.380850    ( 0.0000,  0.0000,  0.0000)
  15 F      0.000000   17.093615    1.380850    ( 0.0000,  0.0000,  0.0000)
  16 F      0.000000   13.730461    4.776955    ( 0.0000,  0.0000,  0.0000)
  17 F      0.000000    6.818923    4.776955    ( 0.0000,  0.0000,  0.0000)
  18 F      0.000000    3.460146    5.429327    ( 0.0000,  0.0000,  0.0000)
  19 F      0.000000   17.089238    5.429327    ( 0.0000,  0.0000,  0.0000)
  20 F     -0.008151   13.708145    2.033221    ( 0.0000,  0.0000,  0.0000)
  21 F      0.000000    6.814546    2.033221    ( 0.0000,  0.0000,  0.0000)
  22 F      1.626314    1.405002    6.767331    ( 0.0000,  0.0000,  0.0000)
  23 F      1.626314   18.974253    6.767331    ( 0.0000,  0.0000,  0.0000)
  24 F      1.626314   11.679694    3.371226    ( 0.0000,  0.0000,  0.0000)
  25 F      1.626314    8.869690    3.371226    ( 0.0000,  0.0000,  0.0000)
  26 F      1.626314    2.017621    3.434678    ( 0.0000,  0.0000,  0.0000)
  27 F      1.626314   18.531763    3.434678    ( 0.0000,  0.0000,  0.0000)
  28 F      1.626314   12.292313    0.038573    ( 0.0000,  0.0000,  0.0000)
  29 F      1.626314    8.444173    0.020030    ( 0.0000,  0.0000,  0.0000)
  30 F      1.626314    4.809789    3.406464    ( 0.0000,  0.0000,  0.0000)
  31 F      1.626314   15.739595    3.431934    ( 0.0000,  0.0000,  0.0000)
  32 F      1.626314   15.084481   -0.009421    ( 0.0000,  0.0000,  0.0000)
  33 F      1.626314    5.390638    0.010358    ( 0.0000,  0.0000,  0.0000)
  34 F      0.000000    0.000000    4.718827    ( 0.0000,  0.0000,  0.0000)
  35 F      0.000000   10.274692    1.322722    ( 0.0000,  0.0000,  0.0000)

Unit cell:
           periodic     x           y           z      points  spacing
  1. axis:    yes    3.252628    0.000000    0.000000    16     0.2033
  2. axis:    yes    0.000000   20.549384    0.000000   104     0.1976
  3. axis:    yes    0.000000    0.000000    6.792211    32     0.2123

  Lengths:   3.252628  20.549384   6.792211
  Angles:   90.000000  90.000000  90.000000

Effective grid spacing dv^(1/3) = 0.2043

                     log10-error:    total        iterations:
           time      wfs    density  energy       fermi  poisson
iter:   1  22:51:49  +1.74   +inf  -213.109970    3      19     
iter:   2  22:52:00  +0.21   +inf  -214.026835    3             
iter:   3  22:52:10  -0.37   +inf  -214.291912    2             
iter:   4  22:52:24  -0.61  -1.12  -212.726363    3      10     
iter:   5  22:52:36  -0.44  -1.15  -259.877420    35     14     
iter:   6  22:52:50  -0.46  -1.00  -249.333423    5      15     
iter:   7  22:53:05  -0.47  -1.04  -233.790253    3      15     
iter:   8  22:53:16  -0.34  -1.14  -270.479898    36     15     
iter:   9  22:53:30  -0.28  -1.07  -217.535271    36     15     
iter:  10  22:53:44  -0.51  -1.21  -215.378612    3      12     
iter:  11  22:53:57  -0.54  -1.30  -237.857901    3      14     
iter:  12  22:54:09  -0.83  -1.13  -220.479229    3      15     
iter:  13  22:54:21  -1.21  -1.21  -206.904667    4      13     
iter:  14  22:54:33  -1.44  -1.42  -206.792501    3      9      
iter:  15  22:54:44  -1.61  -1.44  -206.267460    3      10     
iter:  16  22:54:55  -2.02  -1.45  -207.800187    4      11     
iter:  17  22:55:06  -1.62  -1.41  -213.154332    3      13     
iter:  18  22:55:17  -1.28  -1.28  -222.305733    3      14     
iter:  19  22:55:27  -1.30  -1.21  -206.555887    4      13     
iter:  20  22:55:39  -1.70  -1.48  -206.135152    2      9      
iter:  21  22:55:50  -1.96  -1.50  -207.116428    3      11     
iter:  22  22:56:01  -2.19  -1.46  -205.932283    3      10     
iter:  23  22:56:12  -1.73  -1.52  -213.784485    4      12     
iter:  24  22:56:23  -1.24  -1.33  -225.289548    5      14     
iter:  25  22:56:35  -1.04  -1.22  -207.237757    33     13     
iter:  26  22:56:50  -1.53  -1.50  -206.906941    3      8      
iter:  27  22:57:03  -1.88  -1.52  -206.851317    3      11     
iter:  28  22:57:16  -1.87  -1.56  -206.653616    3      12     
iter:  29  22:57:28  -2.05  -1.55  -207.273520    3      11     
iter:  30  22:57:39  -1.89  -1.55  -208.596168    3      12     
iter:  31  22:57:52  -1.60  -1.49  -206.645028    3      12     
iter:  32  22:58:05  -1.78  -1.59  -206.211074    3      10     
iter:  33  22:58:18  -2.10  -1.65  -206.524558    3      8      
iter:  34  22:58:32  -1.93  -1.63  -207.635034    2      12     
iter:  35  22:58:43  -2.07  -1.55  -205.797993    3      11     
iter:  36  22:58:55  -2.18  -1.69  -208.682030    3      11     
iter:  37  22:59:08  -1.84  -1.53  -206.432413    3      12     
iter:  38  22:59:22  -2.19  -1.67  -206.019910    3      9      
iter:  39  22:59:35  -2.23  -1.72  -205.920553    3      8      
iter:  40  22:59:50  -2.01  -1.77  -207.183430    3      10     
iter:  41  23:00:04  -1.78  -1.68  -208.506987    3      12     
iter:  42  23:00:19  -1.83  -1.60  -206.504190    3      12     
iter:  43  23:00:32  -1.48  -1.83  -219.691369    3      13     
iter:  44  23:00:46  -1.45  -1.34  -206.310627    3      13     
iter:  45  23:00:58  -2.01  -1.84  -206.163637    2      8      
iter:  46  23:01:13  -2.55  -1.86  -206.099870    2      6      
iter:  47  23:01:26  -2.09  -1.88  -210.812760    3      12     
iter:  48  23:01:39  -1.80  -1.52  -206.354924    3      12     
iter:  49  23:01:52  -1.51  -1.85  -225.581050    3      13     
iter:  50  23:02:04  -1.31  -1.29  -206.264090    3      13     
iter:  51  23:02:18  -2.07  -1.86  -206.010643    3      7      
iter:  52  23:02:32  -2.71  -1.93  -206.015479    2      6      
iter:  53  23:02:44  -2.20  -1.93  -207.251468    3      11     
iter:  54  23:02:57  -1.92  -1.79  -206.052362    3      10     
iter:  55  23:03:11  -1.74  -1.94  -222.860115    3      13     
iter:  56  23:03:25  -1.38  -1.30  -206.204360    3      13     
iter:  57  23:03:37  -2.10  -1.91  -206.168822    3      9      
iter:  58  23:03:49  -2.45  -1.93  -205.912855    2      7      
iter:  59  23:04:00  -2.59  -2.01  -206.427181    3      9      
iter:  60  23:04:11  -2.38  -1.88  -205.927302    3      9      
iter:  61  23:04:25  -1.86  -2.01  -218.052357    3      13     
iter:  62  23:04:39  -1.48  -1.36  -206.146046    3      13     
iter:  63  23:04:53  -2.18  -1.95  -206.154621    2      9      
iter:  64  23:05:05  -2.45  -1.97  -205.891022    3      8      
iter:  65  23:05:16  -2.60  -2.05  -206.075627    2      8      
iter:  66  23:05:28  -2.41  -2.03  -206.136833    3      8      
iter:  67  23:05:40  -1.84  -1.97  -215.048771    3      13     
iter:  68  23:05:53  -1.51  -1.42  -207.192849    3      13     
iter:  69  23:06:07  -2.07  -1.76  -205.984167    2      11     
iter:  70  23:06:20  -2.63  -2.06  -205.903428    2      5      
iter:  71  23:06:31  -3.24  -2.09  -205.970783    2      5      
iter:  72  23:06:45  -3.11  -2.07  -205.946636    3      5      
iter:  73  23:06:57  -1.96  -2.07  -213.820537    3      12     
iter:  74  23:07:11  -1.56  -1.44  -210.192597    3      13     
iter:  75  23:07:24  -1.87  -1.55  -205.894237    3      12     
iter:  76  23:07:37  -2.56  -2.11  -205.934809    2      8      
iter:  77  23:07:49  -3.06  -2.08  -205.883645    2      5      
iter:  78  23:08:01  -3.45  -2.12  -205.892932    2      5      
iter:  79  23:08:14  -1.99  -2.11  -212.664020    3      12     
iter:  80  23:08:26  -1.61  -1.47  -210.391361    3      13     
iter:  81  23:08:40  -1.83  -1.56  -205.876021    3      11     
iter:  82  23:08:55  -2.55  -2.13  -205.951537    2      7      
iter:  83  23:09:08  -2.96  -2.10  -205.850532    2      6      
iter:  84  23:09:22  -3.48  -2.16  -205.833360    2      5      
iter:  85  23:09:35  -2.23  -2.18  -207.933196    3      11     
iter:  86  23:09:47  -2.00  -1.75  -207.097662    3      12     
iter:  87  23:10:01  -2.07  -1.85  -205.977997    3      11     
iter:  88  23:10:14  -2.62  -2.14  -205.831030    3      8      
iter:  89  23:10:25  -3.14  -2.19  -205.776825    2      7      
iter:  90  23:10:39  -3.64  -2.26  -205.756207    2      6      
iter:  91  23:10:53  -2.45  -2.30  -207.116576    2      10     
iter:  92  23:11:05  -2.22  -1.83  -206.139305    3      11     
iter:  93  23:11:19  -2.28  -2.13  -206.159190    3      9      
iter:  94  23:11:34  -2.45  -2.08  -206.158463    2      10     
iter:  95  23:11:48  -2.58  -2.08  -205.868135    2      10     
iter:  96  23:12:02  -2.83  -2.22  -205.745090    2      7      
iter:  97  23:12:16  -2.84  -2.40  -206.156976    2      9      
iter:  98  23:12:28  -2.72  -2.06  -205.790567    2      9      
iter:  99  23:12:42  -2.43  -2.33  -206.874774    2      10     
iter: 100  23:12:57  -2.28  -1.90  -205.794164    3      10     
iter: 101  23:13:11  -2.95  -2.31  -205.772533    2      8      
iter: 102  23:13:26  -3.09  -2.35  -205.737294    2      7      
iter: 103  23:13:40  -3.03  -2.42  -205.943967    2      8      
iter: 104  23:13:54  -2.99  -2.17  -205.727702    2      8      
iter: 105  23:14:08  -2.60  -2.43  -206.623315    3      10     
iter: 106  23:14:20  -2.40  -1.96  -205.735250    2      10     
iter: 107  23:14:34  -3.00  -2.41  -205.898217    2      9      
iter: 108  23:14:47  -2.99  -2.22  -205.708966    2      8      
iter: 109  23:15:03  -3.47  -2.49  -205.744375    2      6      
iter: 110  23:15:17  -3.25  -2.38  -205.745864    2      6      
iter: 111  23:15:31  -2.74  -2.42  -206.465918    2      10     
iter: 112  23:15:44  -2.51  -2.00  -205.711553    2      10     
iter: 113  23:15:57  -2.90  -2.51  -206.057753    2      9      
iter: 114  23:16:11  -2.75  -2.12  -205.711244    2      9      
iter: 115  23:16:24  -3.32  -2.51  -205.738292    2      6      
iter: 116  23:16:38  -3.37  -2.43  -205.711610    2      6      
iter: 117  23:16:53  -2.80  -2.53  -206.191224    2      9      
iter: 118  23:17:05  -2.64  -2.08  -205.710501    2      9      
iter: 119  23:17:18  -2.82  -2.49  -206.181535    2      9      
iter: 120  23:17:29  -2.81  -2.06  -205.686198    2      9      
iter: 121  23:17:40  -3.53  -2.63  -205.702440    2      5      
iter: 122  23:17:50  -3.92  -2.58  -205.686910    2      4      
iter: 123  23:18:01  -3.01  -2.63  -205.908640    2      8      
iter: 124  23:18:11  -2.85  -2.27  -205.712872    2      8      
iter: 125  23:18:22  -3.08  -2.61  -206.107287    2      9      
iter: 126  23:18:33  -2.88  -2.10  -205.689356    2      9      
iter: 127  23:18:43  -3.38  -2.63  -205.693254    2      5      
iter: 128  23:18:54  -3.84  -2.67  -205.676168    2      5      
iter: 129  23:19:05  -3.83  -2.79  -205.683904    2      6      
iter: 130  23:19:16  -3.59  -2.80  -205.672295    2      5      
iter: 131  23:19:27  -3.27  -2.83  -205.923921    2      9      
iter: 132  23:19:37  -3.20  -2.25  -205.683159    2      9      
iter: 133  23:19:48  -3.83  -2.79  -205.676654    2      5      
iter: 134  23:19:59  -4.32  -2.81  -205.670924    2      4      
iter: 135  23:20:09  -4.59  -2.94  -205.669553    2      4      
iter: 136  23:20:20  -4.60  -2.95  -205.669889    2      4      
iter: 137  23:20:31  -4.08  -2.98  -205.684925    2      6      
iter: 138  23:20:42  -3.66  -2.81  -205.673100    2      5      
iter: 139  23:20:53  -3.81  -2.81  -205.686288    2      6      
iter: 140  23:21:03  -3.86  -2.79  -205.691465    2      7      
iter: 141  23:21:14  -3.96  -2.68  -205.675633    2      6      
iter: 142  23:21:24  -4.22  -2.87  -205.667264    2      4      
iter: 143  23:21:35  -5.03  -3.09  -205.666281    2      3      
iter: 144  23:21:45  -4.79  -3.12  -205.663549    2      4      
iter: 145  23:21:56  -4.16  -3.14  -205.686671    2      5      
iter: 146  23:22:06  -4.17  -2.82  -205.671964    2      6      
iter: 147  23:22:17  -4.59  -2.98  -205.668733    2      5      
iter: 148  23:22:27  -4.66  -3.08  -205.665681    2      4      
iter: 149  23:22:37  -5.02  -3.15  -205.664923    2      3      
iter: 150  23:22:48  -5.35  -3.21  -205.666999    2      4      
iter: 151  23:22:58  -5.08  -3.18  -205.666256    2      4      
iter: 152  23:23:09  -4.68  -3.22  -205.668094    2      4      
iter: 153  23:23:19  -4.62  -3.03  -205.664049    2      5      
iter: 154  23:23:30  -4.48  -3.13  -205.669167    2      5      
iter: 155  23:23:41  -4.54  -3.07  -205.668108    2      5      
iter: 156  23:23:51  -5.03  -3.18  -205.665014    2      3      
iter: 157  23:24:02  -5.40  -3.28  -205.664772    2      3      
iter: 158  23:24:12  -5.52  -3.32  -205.665234    2      3      
iter: 159  23:24:25  -5.14  -3.29  -205.667770    1      4      
iter: 160  23:24:37  -4.89  -3.27  -205.665903    2      4      
iter: 161  23:24:50  -4.59  -3.24  -205.665658    2      5      
iter: 162  23:25:02  -4.45  -3.05  -205.666550    2      4      
iter: 163  23:25:15  -4.82  -3.24  -205.665512    2      4      
iter: 164  23:25:27  -5.24  -3.35  -205.665275    2      3      
iter: 165  23:25:40  -5.82  -3.41  -205.664368    2      3      
iter: 166  23:25:52  -5.98  -3.44  -205.665256    2      3      
iter: 167  23:26:05  -5.59  -3.40  -205.666105    2      3      
iter: 168  23:26:16  -5.00  -3.35  -205.665754    2      4      
iter: 169  23:26:26  -4.90  -3.21  -205.665095    2      4      
iter: 170  23:26:37  -4.79  -3.26  -205.663487    2      4      
iter: 171  23:26:47  -5.05  -3.40  -205.665530    2      3      
iter: 172  23:26:57  -5.72  -3.46  -205.664805    2      3      
iter: 173  23:27:08  -6.04  -3.49  -205.664493    2      3      
iter: 174  23:27:19  -5.89  -3.52  -205.664782    2      3      
iter: 175  23:27:30  -5.45  -3.50  -205.665777    2      4      
iter: 176  23:27:40  -5.07  -3.45  -205.665756    2      4      
iter: 177  23:27:50  -4.85  -3.48  -205.662051    2      4      
iter: 178  23:28:01  -4.93  -3.40  -205.665211    2      4      
iter: 179  23:28:11  -5.26  -3.32  -205.664561    2      4      
iter: 180  23:28:22  -5.84  -3.59  -205.664380    2      3      
iter: 181  23:28:33  -6.20  -3.65  -205.664365    2      3      
iter: 182  23:28:43  -6.12  -3.62  -205.664061    2      3      
iter: 183  23:28:53  -5.57  -3.68  -205.666255    1      4      
iter: 184  23:29:05  -5.52  -3.57  -205.664954    2      3      
iter: 185  23:29:15  -5.22  -3.61  -205.663421    2      4      
iter: 186  23:29:26  -5.16  -3.46  -205.664141    2      4      
iter: 187  23:29:39  -5.56  -3.47  -205.663814    2      4      
iter: 188  23:29:50  -5.62  -3.67  -205.664284    2      3      
iter: 189  23:30:00  -6.24  -3.82  -205.663812    2      3      
iter: 190  23:30:11  -6.33  -3.78  -205.664200    2      2      
iter: 191  23:30:22  -5.59  -3.84  -205.664460    2      5      
iter: 192  23:30:33  -5.22  -3.43  -205.665772    2      4      
iter: 193  23:30:43  -5.54  -3.57  -205.664404    2      4      
iter: 194  23:30:54  -5.59  -3.88  -205.664404    2      4      
iter: 195  23:31:04  -5.64  -3.70  -205.663521    2      4      
iter: 196  23:31:14  -5.67  -4.02  -205.664100    2      4      
iter: 197  23:31:25  -5.79  -4.02  -205.664994    2      3      
iter: 198  23:31:35  -5.77  -3.62  -205.664156    2      3      
iter: 199  23:31:46  -6.56  -4.06  -205.664302    2      3      
iter: 200  23:31:56  -6.22  -4.30  -205.664074    1      3      
iter: 201  23:32:06  -6.05  -4.04  -205.663465    2      3      
iter: 202  23:32:17  -6.31  -4.06  -205.663968    2      2      
iter: 203  23:32:27  -7.32  -4.54  -205.663999    1      1      
iter: 204  23:32:37  -7.73  -4.55  -205.663976    1      1      

Converged after 204 iterations.

Dipole moment: (-24.774767, -30.909399, -31.542902) |e|*Ang

Energy contributions relative to reference atoms: (reference = -479224.937077)

Kinetic:       +180.244904
Potential:     -183.509081
External:        +0.000000
XC:            -213.030751
Entropy (-ST):   -1.435782
Local:          +11.348843
--------------------------
Free energy:   -206.381868
Extrapolated:  -205.663976

Fermi level: 3.82592

 Band  Eigenvalues  Occupancy
    0    -20.79281    2.00000
    1    -20.77585    2.00000
    2    -20.65134    2.00000
    3    -20.62971    2.00000
    4    -20.41903    2.00000
    5    -20.38352    2.00000
    6    -20.36810    2.00000
    7    -20.35893    2.00000
    8    -20.35052    2.00000
    9    -20.33782    2.00000
   10    -20.33004    2.00000
   11    -20.31726    2.00000
   12    -20.27259    2.00000
   13    -20.23913    2.00000
   14    -20.21529    2.00000
   15    -20.20621    2.00000
   16    -20.19832    2.00000
   17    -20.17573    2.00000
   18    -20.16542    2.00000
   19    -20.13239    2.00000
   20    -19.05905    2.00000
   21    -18.95811    2.00000
   22    -14.52331    2.00000
   23    -14.48778    2.00000
   24     -4.29364    2.00000
   25     -4.19893    2.00000
   26     -4.03077    2.00000
   27     -3.95839    2.00000
   28     -3.74802    2.00000
   29     -3.53712    2.00000
   30     -3.47988    2.00000
   31     -3.43846    2.00000
   32     -3.35406    2.00000
   33     -3.12966    2.00000
   34     -2.75351    2.00000
   35     -2.72946    2.00000
   36     -2.69168    2.00000
   37     -2.62116    2.00000
   38     -2.59274    2.00000
   39     -2.48264    2.00000
   40     -2.42278    2.00000
   41     -2.42208    2.00000
   42     -2.40910    2.00000
   43     -2.40301    2.00000
   44     -2.40171    2.00000
   45     -2.39535    2.00000
   46     -2.36326    2.00000
   47     -2.33210    2.00000
   48     -2.31814    2.00000
   49     -2.30161    2.00000
   50     -2.27908    2.00000
   51     -2.22902    2.00000
   52     -2.21683    2.00000
   53     -2.21194    2.00000
   54     -2.18997    2.00000
   55     -2.18344    2.00000
   56     -2.15204    2.00000
   57     -2.15198    2.00000
   58     -2.13073    2.00000
   59     -2.06778    2.00000
   60     -1.97558    2.00000
   61     -1.95018    2.00000
   62     -1.84190    2.00000
   63     -1.75065    2.00000
   64     -1.73909    2.00000
   65     -1.69481    2.00000
   66     -1.62097    2.00000
   67     -1.61831    2.00000
   68     -1.58528    2.00000
   69     -1.51340    2.00000
   70     -1.51066    2.00000
   71     -1.50772    2.00000
   72     -1.36170    2.00000
   73     -1.31983    2.00000
   74     -1.31536    2.00000
   75     -1.29008    2.00000
   76     -1.27499    2.00000
   77     -1.23676    2.00000
   78     -1.23157    2.00000
   79     -1.21865    2.00000
   80     -1.20964    2.00000
   81     -1.14930    2.00000
   82     -1.13404    2.00000
   83     -1.04987    2.00000
   84     -0.96806    2.00000
   85     -0.94220    2.00000
   86     -0.76374    2.00000
   87     -0.70491    2.00000
   88     -0.15399    2.00000
   89     -0.12688    2.00000
   90     -0.04549    2.00000
   91     -0.01733    2.00000
   92      0.02486    2.00000
   93      0.12299    2.00000
   94      0.62564    2.00000
   95      0.74997    2.00000
   96      2.80038    1.99993
   97      2.83615    1.99990
   98      2.85552    1.99988
   99      2.87940    1.99985
  100      2.89855    1.99981
  101      2.95138    1.99968
  102      2.95963    1.99965
  103      2.96544    1.99963
  104      2.98238    1.99957
  105      3.00201    1.99947
  106      3.01023    1.99943
  107      3.04621    1.99918
  108      3.13561    1.99799
  109      3.14217    1.99786
  110      3.14689    1.99775
  111      3.18573    1.99669
  112      3.19452    1.99638
  113      3.21190    1.99570
  114      3.21595    1.99552
  115      3.23657    1.99450
  116      3.27562    1.99188
  117      3.28464    1.99112
  118      3.28954    1.99068
  119      3.29212    1.99043
  120      3.32588    1.98662
  121      3.33876    1.98479
  122      3.41265    1.96843
  123      3.46321    1.94819
  124      3.48966    1.93303
  125      3.56565    1.86207
  126      3.61697    1.77975
  127      3.63851    1.73385
  128      3.73647    1.41964
  129      3.75890    1.32307
  130      3.78427    1.20527
  131      3.84384    0.91062
  132      3.91138    0.59694
  133      3.95051    0.44681
  134      3.96915    0.38549
  135      4.08007    0.14599
  136      4.10254    0.11835
  137      4.16372    0.06598
  138      4.17135    0.06128
  139      4.21911    0.03846
  140      4.22707    0.03557
  141      4.23403    0.03322
  142      4.23643    0.03244
  143      4.30868    0.01588
  144      4.33805    0.01187
  145      4.39096    0.00701
  146      4.41308    0.00562
  147      4.43366    0.00458
  148      4.48059    0.00287
  149      4.48214    0.00282
  150      4.58785    0.00098
  151      4.96519    0.00002
  152      5.16845    0.00000
  153      5.31245    0.00000
  154      5.32495    0.00000
  155      5.34325    0.00000
  156      5.99028    0.00000
  157      6.48675    0.00000
  158      6.79630    0.00000
  159      8.13847    0.00000
  160      8.29946    0.00000
  161      9.50933    0.00000
  162      9.91032    0.00000
  163     10.12567    0.00000
  164     10.31106    0.00000
  165     10.32908    0.00000
  166     10.40883    0.00000
  167     10.46737    0.00000
  168     10.70786    0.00000
  169     10.74351    0.00000
  170     10.93225    0.00000
  171     11.06417    0.00000
  172     11.38446    0.00000
  173     11.45016    0.00000
  174     11.68774    0.00000
  175     12.08462    0.00000
  176     12.18036    0.00000
  177     12.89629    0.00000
  178     13.13080    0.00000
  179     13.52293    0.00000
  180     14.37767    0.00000
  181     14.48486    0.00000
  182     14.94316    0.00000
  183     15.01028    0.00000
  184     15.15623    0.00000
  185     15.39465    0.00000
  186     15.62236    0.00000
  187     15.96403    0.00000
  188     16.18988    0.00000
  189     16.26012    0.00000
  190     16.40386    0.00000
  191     16.46859    0.00000
  192     16.48375    0.00000
  193     16.84145    0.00000
  194     16.87287    0.00000
  195     16.87931    0.00000
  196     17.00182    0.00000
  197     17.05872    0.00000
  198     17.09502    0.00000
  199     17.16711    0.00000
  200     17.38004    0.00000
  201     17.41757    0.00000
  202     17.43772    0.00000
  203     17.76795    0.00000

Timing:                              incl.     excl.
-----------------------------------------------------------
Hamiltonian:                         3.699     0.000   0.0% |
 Atomic:                             1.928     0.004   0.0% |
  XC Correction:                     1.925     1.925   0.1% |
 Calculate atomic Hamiltonians:      0.015     0.015   0.0% |
 Communicate:                        0.000     0.000   0.0% |
 Hartree integrate/restrict:         0.013     0.013   0.0% |
 Initialize Hamiltonian:             0.001     0.001   0.0% |
 Poisson:                            1.346     1.346   0.1% |
 XC 3D grid:                         0.390     0.390   0.0% |
 vbar:                               0.006     0.006   0.0% |
LCAO initialization:                15.309     0.296   0.0% |
 LCAO eigensolver:                   1.883     0.000   0.0% |
  Calculate projections:             0.008     0.008   0.0% |
  DenseAtomicCorrection:             0.009     0.009   0.0% |
  Distribute overlap matrix:         0.000     0.000   0.0% |
  Orbital Layouts:                   0.026     0.026   0.0% |
  Potential matrix:                  1.840     1.840   0.1% |
 LCAO to grid:                      11.871    11.871   0.5% |
 Set positions (LCAO WFS):           1.259     0.000   0.0% |
  Basic WFS set positions:           0.001     0.001   0.0% |
  Basis functions set positions:     0.000     0.000   0.0% |
  TCI: Calculate S, T, P:            1.257     1.257   0.1% |
SCF-cycle:                        2460.123     0.189   0.0% |
 Davidson:                        1926.711   433.634  17.5% |------|
  Apply hamiltonian:                47.232    47.232   1.9% ||
  Subspace diag:                   511.509     0.038   0.0% |
   calc_h_matrix:                  202.951   155.412   6.3% |--|
    Apply hamiltonian:              47.539    47.539   1.9% ||
   diagonalize:                      2.489     2.489   0.1% |
   rotate_psi:                     306.032   306.032  12.3% |----|
  calc. matrices:                  614.231   566.712  22.8% |--------|
   Apply hamiltonian:               47.518    47.518   1.9% ||
  diagonalize:                       9.330     9.330   0.4% |
  rotate_psi:                      310.774   310.774  12.5% |----|
 Density:                           11.285     0.006   0.0% |
  Atomic density matrices:           0.834     0.834   0.0% |
  Mix:                               5.676     5.676   0.2% |
  Multipole moments:                 0.171     0.171   0.0% |
  Pseudo density:                    4.599     4.594   0.2% |
   Symmetrize density:               0.005     0.005   0.0% |
 Hamiltonian:                      520.103     0.026   0.0% |
  Atomic:                          356.479     0.766   0.0% |
   XC Correction:                  355.713   355.713  14.3% |-----|
  Calculate atomic Hamiltonians:     3.140     3.140   0.1% |
  Communicate:                       0.002     0.002   0.0% |
  Hartree integrate/restrict:        1.462     1.462   0.1% |
  Poisson:                          85.565    85.565   3.4% ||
  XC 3D grid:                       72.649    72.649   2.9% ||
  vbar:                              0.780     0.780   0.0% |
 Orthonormalize:                     1.834     0.000   0.0% |
  calc_s_matrix:                     0.444     0.444   0.0% |
  inverse-cholesky:                  0.002     0.002   0.0% |
  projections:                       0.620     0.620   0.0% |
  rotate_psi_s:                      0.768     0.768   0.0% |
Set symmetry:                        0.001     0.001   0.0% |
Other:                               1.572     1.572   0.1% |
-----------------------------------------------------------
Total:                                      2480.703 100.0%

Memory usage: 1.08 GiB
Date: Fri Mar 29 23:32:37 2019
