
  ___ ___ ___ _ _ _  
 |   |   |_  | | | | 
 | | | | | . | | | | 
 |__ |  _|___|_____|  1.4.0
 |___|_|             

User:   murakami@tssm1.eng.shizuoka.ac.jp
Date:   Fri Mar 29 20:05:05 2019
Arch:   x86_64
Pid:    31289
Python: 3.6.5
gpaw:   /home/murakami/.local/lib/python3.6/site-packages/gpaw
_gpaw:  /home/murakami/.local/lib/python3.6/site-packages/
        _gpaw.cpython-36m-x86_64-linux-gnu.so
ase:    /home/murakami/.local/lib/python3.6/site-packages/ase (version 3.16.2)
numpy:  /home/murakami/.local/lib/python3.6/site-packages/numpy (version 1.15.2)
scipy:  /home/murakami/.local/lib/python3.6/site-packages/scipy (version 1.1.0)
units:  Angstrom and eV
cores:  1

Input parameters:
  kpts: {size: (1, 1, 1)}
  maxiter: 300
  xc: PBE

System changes: positions, numbers, cell, pbc, initial_charges, initial_magmoms 

Initialize ...

Fe-setup:
  name: Iron
  id: 37abbd8d6c3c35915a9b583b742da910
  Z: 26
  valence: 8
  core: 18
  charge: 0.0
  file: /home/murakami/Public/gpaw-setups-0.9.20000/Fe.PBE.gz
  cutoffs: 1.06(comp), 2.06(filt), 2.67(core), lmax=2
  valence states:
                energy  radius
    4s(2.00)    -5.291   1.164
    4p(0.00)    -1.326   1.058
    3d(6.00)    -7.505   1.058
    *s          21.920   1.164
    *p          25.885   1.058
    *d          19.706   1.058

  Using partial waves for Fe as LCAO basis

O-setup:
  name: Oxygen
  id: 32ecd46bf208036f09c70b0ec9a88b78
  Z: 8
  valence: 6
  core: 2
  charge: 0.0
  file: /home/murakami/Public/gpaw-setups-0.9.20000/O.PBE.gz
  cutoffs: 0.67(comp), 1.17(filt), 0.83(core), lmax=2
  valence states:
                energy  radius
    2s(2.00)   -23.961   0.688
    2p(4.00)    -9.029   0.598
    *s           3.251   0.688
    *p          18.182   0.598
    *d           0.000   0.619

  Using partial waves for O as LCAO basis

F-setup:
  name: Fluorine
  id: 9cd46ba2a61e170ad72278be75b55cc0
  Z: 9
  valence: 7
  core: 2
  charge: 0.0
  file: /home/murakami/Public/gpaw-setups-0.9.20000/F.PBE.gz
  cutoffs: 0.64(comp), 1.14(filt), 0.74(core), lmax=2
  valence states:
                energy  radius
    2s(2.00)   -29.898   0.635
    2p(5.00)   -11.110   0.635
    *s          -2.687   0.635
    *p          16.102   0.635
    *d           0.000   0.635

  Using partial waves for F as LCAO basis

Reference energy: -479224.937077

Spin-paired calculation

Occupation numbers:
  Fermi-Dirac: width=0.1000 eV

Convergence criteria:
  Maximum total energy change: 0.0005 eV / electron
  Maximum integral of absolute density change: 0.0001 electrons
  Maximum integral of absolute eigenstate change: 4e-08 eV^2
  Maximum number of iterations: 300

Symmetries present (total): 1

  ( 1  0  0)
  ( 0  1  0)
  ( 0  0  1)

1 k-point (Gamma)
1 k-point in the irreducible part of the Brillouin zone
       k-points in crystal coordinates                weights
   0:     0.00000000    0.00000000    0.00000000          1/1

Wave functions: Uniform real-space grid
  Kinetic energy operator: 8*3+1=25 point O(h^6) finite-difference Laplacian
  ScaLapack parameters: grid=1x1, blocksize=None 

Eigensolver
   Davidson(niter=1, smin=None, normalize=True) 

Densities:
  Coarse grid: 16*104*32 grid
  Fine grid: 32*208*64 grid
  Total Charge: 0.000000 

Density mixing:
  Method: separate
  Backend: pulay
  Linear mixing parameter: 0.05
  Mixing with 5 old densities
  Damping of long wave oscillations: 50 

Hamiltonian:
  XC and Coulomb potentials evaluated on a 32*208*64 grid
  Using the PBE Exchange-Correlation functional
  Interpolation: tri-quintic (5. degree polynomial)
  Poisson solver: Jacobi solver with 5 multi-grid levels
    Coarsest grid: 2 x 13 x 4 points
    Stencil: 8*3+1=25 point O(h^6) finite-difference Laplacian
    Max iterations: 1000
    Tolerance: 2.000000e-10 

Memory estimate:
  Process memory now: 1103.97 MiB
  Calculator: 269.53 MiB
    Density: 69.97 MiB
      Arrays: 10.56 MiB
      Localized functions: 55.35 MiB
      Mixer: 4.06 MiB
    Hamiltonian: 19.00 MiB
      Arrays: 6.91 MiB
      XC: 0.00 MiB
      Poisson: 7.89 MiB
      vbar: 4.20 MiB
    Wavefunctions: 180.56 MiB
      Arrays psit_nG: 82.88 MiB
      Eigensolver: 88.09 MiB
      Projections: 0.82 MiB
      Projectors: 8.78 MiB

Total number of cores used: 1

Number of atoms: 36
Number of atomic orbitals: 204
Number of bands in calculation: 204
Bands to converge: occupied states only
Number of valence electrons: 262

... initialized

Initializing position-dependent things.

Density initialized from atomic densities
Creating initial wave functions:
  204 bands from LCAO basis set

                                
                                
                                
                                
                       F        
                                
                  F             
                                
                       F        
                FFee            
                     F          
             O    F Fe          
                  F             
             Fe F     Fe        
           FF    F  F           
         F     Fee              
             FF    F            
         FeF                    
       F    F   F               
           Fe                   
         F Fe F                 
       O     Fe                 
                                
       Fe                       
                                
                                
                                
                                

Positions:
   0 Fe     0.019874    3.425973    3.405553    ( 0.0000,  0.0000,  0.0000)
   1 Fe     0.099335   17.123411    3.405553    ( 0.0000,  0.0000,  0.0000)
   2 Fe     0.059789   13.777252    0.009448    ( 0.0000,  0.0000,  0.0000)
   3 Fe     0.039730    6.848719    0.009448    ( 0.0000,  0.0000,  0.0000)
   4 Fe     1.646105    3.411629    0.000027    ( 0.0000,  0.0000,  0.0000)
   5 Fe     1.725732   17.137755    0.000027    ( 0.0000,  0.0000,  0.0000)
   6 Fe     1.705710   13.686321    3.396133    ( 0.0000,  0.0000,  0.0000)
   7 Fe     1.666127    6.863063    3.396133    ( 0.0000,  0.0000,  0.0000)
   8 Fe     0.005048    0.000000    0.082607    ( 0.0000,  0.0000,  0.0000)
   9 Fe     0.059604   10.274692    3.478712    ( 0.0000,  0.0000,  0.0000)
  10 Fe     1.626314    0.000000    3.208640    ( 0.0000,  0.0000,  0.0000)
  11 Fe     1.685919   10.274692    6.604746    ( 0.0000,  0.0000,  0.0000)
  12 O      0.000000    0.000000    2.135213    ( 0.0000,  0.0000,  0.0000)
  13 O      0.059604   10.274692    5.513353    ( 0.0000,  0.0000,  0.0000)
  14 F      0.020047    3.455769    1.380850    ( 0.0000,  0.0000,  0.0000)
  15 F      0.086945   17.093615    1.380850    ( 0.0000,  0.0000,  0.0000)
  16 F      0.079652   13.730461    4.788257    ( 0.0000,  0.0000,  0.0000)
  17 F      0.038706    6.672138    4.776955    ( 0.0000,  0.0000,  0.0000)
  18 F      0.020073    3.460146    5.429327    ( 0.0000,  0.0000,  0.0000)
  19 F      0.099136   17.089238    5.429327    ( 0.0000,  0.0000,  0.0000)
  20 F      0.079677   13.734838    2.033221    ( 0.0000,  0.0000,  0.0000)
  21 F      0.039532    6.814546    2.033221    ( 0.0000,  0.0000,  0.0000)
  22 F      1.634465    1.405002    6.767331    ( 0.0000,  0.0000,  0.0000)
  23 F      1.737372   19.144382    6.787361    ( 0.0000,  0.0000,  0.0000)
  24 F      1.694069   11.679694    3.371226    ( 0.0000,  0.0000,  0.0000)
  25 F      1.677768    8.869690    3.371226    ( 0.0000,  0.0000,  0.0000)
  26 F      1.669231    2.017621    3.434678    ( 0.0000,  0.0000,  0.0000)
  27 F      1.733819   18.531763    3.434678    ( 0.0000,  0.0000,  0.0000)
  28 F      1.697623   12.292313    0.038573    ( 0.0000,  0.0000,  0.0000)
  29 F      1.674214    8.257071    0.038573    ( 0.0000,  0.0000,  0.0000)
  30 F      1.654216    4.809789    3.406464    ( 0.0000,  0.0000,  0.0000)
  31 F      1.717621   15.739595    3.406464    ( 0.0000,  0.0000,  0.0000)
  32 F      1.713821   15.084481    0.010358    ( 0.0000,  0.0000,  0.0000)
  33 F      1.658016    5.464903    0.010358    ( 0.0000,  0.0000,  0.0000)
  34 F      0.000000    0.000000    4.718827    ( 0.0000,  0.0000,  0.0000)
  35 F      0.059604   10.274692    1.322722    ( 0.0000,  0.0000,  0.0000)

Unit cell:
           periodic     x           y           z      points  spacing
  1. axis:    yes    3.252628    0.000000    0.000000    16     0.2033
  2. axis:    yes    0.119209   20.549384    0.000000   104     0.1976
  3. axis:    yes    0.000000    0.000000    6.792211    32     0.2123

  Lengths:   3.252628  20.549730   6.792211
  Angles:   90.000000  90.000000  89.667625

Effective grid spacing dv^(1/3) = 0.2043

                     log10-error:    total        iterations:
           time      wfs    density  energy       fermi  poisson
iter:   1  20:05:36  +1.74   +inf  -213.535101    3      19     
iter:   2  20:05:46  +0.20   +inf  -214.432807    3             
iter:   3  20:05:56  -0.38   +inf  -214.692038    2             
iter:   4  20:06:07  -0.64  -1.12  -212.400785    3      9      
iter:   5  20:06:18  -0.24  -1.16  -228.658363    33     11     
iter:   6  20:06:29  -0.26  -1.15  -265.568546    3      15     
iter:   7  20:06:41  -0.30  -1.11  -231.496632    3      15     
iter:   8  20:06:53  -0.55  -1.17  -215.795233    3      14     
iter:   9  20:07:04  -0.56  -1.26  -246.913977    4      15     
iter:  10  20:07:16  -0.60  -1.14  -223.577162    3      14     
iter:  11  20:07:27  -0.92  -1.22  -208.619306    3      13     
iter:  12  20:07:38  -1.37  -1.40  -207.072902    3      11     
iter:  13  20:07:50  -1.62  -1.45  -206.575685    3      10     
iter:  14  20:08:04  -1.97  -1.47  -209.008546    3      11     
iter:  15  20:08:21  -1.53  -1.40  -209.162477    3      13     
iter:  16  20:08:37  -1.52  -1.40  -213.872171    4      13     
iter:  17  20:08:51  -1.43  -1.29  -207.165165    2      13     
iter:  18  20:09:07  -1.54  -1.48  -208.184217    3      10     
iter:  19  20:09:23  -1.63  -1.45  -206.386822    3      11     
iter:  20  20:09:38  -2.23  -1.52  -206.406065    3      9      
iter:  21  20:09:54  -2.23  -1.53  -207.359191    3      10     
iter:  22  20:10:11  -1.75  -1.50  -217.184754    4      13     
iter:  23  20:10:28  -1.38  -1.27  -208.557269    3      13     
iter:  24  20:10:42  -1.65  -1.48  -206.727270    3      12     
iter:  25  20:10:55  -1.54  -1.59  -210.858611    4      11     
iter:  26  20:11:06  -1.19  -1.48  -208.426702    3      12     
iter:  27  20:11:17  -1.69  -1.53  -206.855850    3      11     
iter:  28  20:11:28  -1.84  -1.62  -206.883313    3      9      
iter:  29  20:11:40  -2.07  -1.70  -207.110288    3      11     
iter:  30  20:11:52  -1.74  -1.69  -210.159061    3      12     
iter:  31  20:12:03  -1.51  -1.56  -210.061316    3      12     
iter:  32  20:12:14  -1.35  -1.60  -207.535379    3      12     
iter:  33  20:12:25  -1.64  -1.76  -209.995664    2      11     
iter:  34  20:12:37  -1.82  -1.54  -206.551559    3      12     
iter:  35  20:12:48  -2.50  -1.88  -206.353190    3      9      
iter:  36  20:12:59  -2.56  -1.93  -207.730444    3      10     
iter:  37  20:13:12  -1.87  -1.75  -208.557092    3      11     
iter:  38  20:13:23  -1.83  -1.68  -206.451780    3      11     
iter:  39  20:13:35  -1.87  -1.92  -212.448151    3      12     
iter:  40  20:13:48  -1.62  -1.45  -207.139771    3      12     
iter:  41  20:14:00  -2.14  -1.82  -206.558894    2      11     
iter:  42  20:14:11  -2.65  -1.92  -206.512083    2      7      
iter:  43  20:14:22  -2.31  -1.94  -206.982604    2      9      
iter:  44  20:14:35  -2.11  -1.88  -207.711650    2      10     
iter:  45  20:14:47  -1.71  -1.76  -219.242561    3      13     
iter:  46  20:15:00  -1.41  -1.32  -209.284260    3      13     
iter:  47  20:15:13  -1.79  -1.62  -206.471951    3      11     
iter:  48  20:15:25  -2.49  -1.98  -206.491766    2      6      
iter:  49  20:15:38  -2.65  -1.99  -206.654811    2      8      
iter:  50  20:15:50  -2.58  -1.96  -206.787105    2      8      
iter:  51  20:16:01  -1.88  -1.92  -215.959370    3      13     
iter:  52  20:16:13  -1.47  -1.37  -212.860834    3      13     
iter:  53  20:16:24  -1.72  -1.48  -206.429459    3      12     
iter:  54  20:16:35  -2.43  -2.02  -206.449399    2      5      
iter:  55  20:16:45  -2.82  -2.02  -206.524321    2      7      
iter:  56  20:16:57  -2.84  -2.01  -206.491840    2      7      
iter:  57  20:17:08  -1.89  -2.02  -217.058216    4      13     
iter:  58  20:17:20  -1.51  -1.36  -213.293277    2      13     
iter:  59  20:17:31  -1.69  -1.49  -206.728832    3      12     
iter:  60  20:17:43  -2.28  -1.95  -206.480078    2      7      
iter:  61  20:17:54  -2.90  -2.04  -206.459327    2      6      
iter:  62  20:18:05  -2.99  -2.07  -206.460139    2      5      
iter:  63  20:18:16  -1.90  -2.06  -215.646236    3      13     
iter:  64  20:18:28  -1.56  -1.39  -209.251574    3      13     
iter:  65  20:18:39  -1.92  -1.67  -206.478399    3      11     
iter:  66  20:18:50  -2.58  -2.09  -206.464370    2      6      
iter:  67  20:19:01  -2.99  -2.08  -206.457369    2      6      
iter:  68  20:19:12  -3.15  -2.10  -206.403127    2      6      
iter:  69  20:19:23  -2.41  -2.13  -206.950566    3      10     
iter:  70  20:19:34  -2.31  -1.97  -206.836207    3      10     
iter:  71  20:19:45  -2.57  -2.01  -206.375820    2      9      
iter:  72  20:19:56  -3.22  -2.19  -206.280212    2      6      
iter:  73  20:20:07  -3.21  -2.25  -206.291603    2      7      
iter:  74  20:20:18  -2.79  -2.24  -206.395240    2      7      
iter:  75  20:20:29  -2.64  -2.21  -206.702927    2      9      
iter:  76  20:20:41  -2.62  -2.03  -206.584408    3      10     
iter:  77  20:20:52  -2.60  -2.08  -206.506265    3      9      
iter:  78  20:21:03  -2.55  -2.12  -206.275015    2      9      
iter:  79  20:21:14  -3.33  -2.30  -206.267232    2      5      
iter:  80  20:21:26  -3.87  -2.31  -206.242024    2      6      
iter:  81  20:21:37  -3.38  -2.35  -206.329439    2      7      
iter:  82  20:21:48  -2.90  -2.26  -206.473500    2      9      
iter:  83  20:22:00  -2.60  -2.22  -206.621811    3      10     
iter:  84  20:22:14  -2.57  -2.11  -206.333441    2      9      
iter:  85  20:22:26  -2.55  -2.32  -206.622998    2      9      
iter:  86  20:22:40  -2.51  -2.11  -206.256774    2      9      
iter:  87  20:22:54  -3.40  -2.42  -206.211374    2      5      
iter:  88  20:23:05  -4.06  -2.53  -206.216385    2      5      
iter:  89  20:23:18  -3.39  -2.54  -206.293779    2      8      
iter:  90  20:23:31  -3.29  -2.34  -206.220922    2      7      
iter:  91  20:23:45  -2.96  -2.51  -206.373298    2      8      
iter:  92  20:23:59  -2.77  -2.26  -206.241271    2      8      
iter:  93  20:24:13  -3.40  -2.49  -206.220540    2      7      
iter:  94  20:24:27  -3.73  -2.56  -206.210671    2      6      
iter:  95  20:24:41  -3.69  -2.59  -206.216056    2      6      
iter:  96  20:24:53  -3.48  -2.59  -206.213679    2      6      
iter:  97  20:25:08  -2.83  -2.59  -206.844154    2      10     
iter:  98  20:25:22  -2.74  -2.03  -206.211133    2      10     
iter:  99  20:25:35  -3.35  -2.64  -206.227300    2      7      
iter: 100  20:25:48  -3.66  -2.52  -206.196819    2      6      
iter: 101  20:26:03  -4.20  -2.68  -206.195998    2      5      
iter: 102  20:26:16  -4.30  -2.73  -206.196235    2      4      
iter: 103  20:26:31  -3.37  -2.70  -206.258557    2      7      
iter: 104  20:26:47  -3.24  -2.46  -206.192065    2      7      
iter: 105  20:27:02  -3.70  -2.76  -206.250457    2      7      
iter: 106  20:27:17  -3.45  -2.54  -206.237418    2      8      
iter: 107  20:27:32  -3.38  -2.59  -206.207174    2      6      
iter: 108  20:27:47  -3.63  -2.66  -206.198459    2      6      
iter: 109  20:28:02  -3.69  -2.79  -206.186512    2      7      
iter: 110  20:28:17  -3.67  -3.10  -206.188575    2      6      
iter: 111  20:28:31  -3.88  -2.94  -206.195489    2      5      
iter: 112  20:28:46  -4.30  -3.01  -206.186304    2      5      
iter: 113  20:29:01  -4.51  -3.11  -206.185860    2      5      
iter: 114  20:29:16  -4.32  -3.20  -206.183615    2      5      
iter: 115  20:29:31  -4.43  -3.13  -206.187014    2      5      
iter: 116  20:29:42  -4.56  -3.26  -206.183684    2      4      
iter: 117  20:29:52  -4.91  -3.36  -206.180737    2      3      
iter: 118  20:30:03  -5.13  -3.44  -206.183357    2      4      
iter: 119  20:30:14  -4.90  -3.31  -206.187884    1      4      
iter: 120  20:30:25  -4.95  -3.13  -206.182793    2      4      
iter: 121  20:30:36  -5.47  -3.50  -206.182673    2      3      
iter: 122  20:30:47  -5.56  -3.48  -206.181941    2      3      
iter: 123  20:30:58  -5.79  -3.52  -206.181936    2      3      
iter: 124  20:31:08  -5.76  -3.54  -206.182691    2      3      
iter: 125  20:31:19  -5.27  -3.51  -206.185890    2      4      
iter: 126  20:31:30  -5.14  -3.24  -206.182515    2      4      
iter: 127  20:31:41  -5.61  -3.56  -206.181533    2      3      
iter: 128  20:31:52  -5.59  -3.58  -206.182788    2      3      
iter: 129  20:32:03  -5.78  -3.53  -206.182602    2      3      
iter: 130  20:32:14  -5.85  -3.57  -206.182174    2      3      
iter: 131  20:32:25  -5.04  -3.61  -206.188789    2      5      
iter: 132  20:32:35  -4.86  -3.06  -206.182276    2      4      
iter: 133  20:32:46  -5.71  -3.64  -206.182629    2      3      
iter: 134  20:32:57  -5.61  -3.60  -206.181907    2      3      
iter: 135  20:33:08  -5.55  -3.55  -206.182009    2      3      
iter: 136  20:33:19  -5.59  -3.59  -206.182639    2      3      
iter: 137  20:33:30  -5.80  -3.58  -206.182869    2      3      
iter: 138  20:33:40  -6.10  -3.64  -206.182993    2      4      
iter: 139  20:33:51  -5.29  -3.71  -206.182340    2      4      
iter: 140  20:34:02  -5.12  -3.33  -206.182011    2      4      
iter: 141  20:34:13  -5.45  -3.64  -206.181988    2      4      
iter: 142  20:34:24  -5.38  -3.86  -206.183523    2      4      
iter: 143  20:34:35  -5.57  -3.71  -206.183079    2      4      
iter: 144  20:34:46  -5.96  -3.88  -206.182194    2      3      
iter: 145  20:34:57  -6.76  -4.19  -206.182380    1      3      
iter: 146  20:35:07  -6.75  -4.42  -206.182300    2      2      
iter: 147  20:35:18  -6.87  -4.37  -206.182323    1      2      
iter: 148  20:35:29  -6.88  -4.54  -206.182126    2      2      
iter: 149  20:35:40  -6.80  -4.32  -206.182488    2      2      
iter: 150  20:35:51  -7.25  -4.36  -206.182360    2      2      
iter: 151  20:36:01  -7.48  -4.48  -206.182347    1      2      

Converged after 151 iterations.

Dipole moment: (-24.571794, -31.050641, -35.330428) |e|*Ang

Energy contributions relative to reference atoms: (reference = -479224.937077)

Kinetic:       +175.461509
Potential:     -179.707569
External:        +0.000000
XC:            -212.552978
Entropy (-ST):   -1.403368
Local:          +11.318375
--------------------------
Free energy:   -206.884031
Extrapolated:  -206.182347

Fermi level: 3.83435

 Band  Eigenvalues  Occupancy
    0    -20.88535    2.00000
    1    -20.76711    2.00000
    2    -20.64656    2.00000
    3    -20.60849    2.00000
    4    -20.58834    2.00000
    5    -20.38893    2.00000
    6    -20.38713    2.00000
    7    -20.37270    2.00000
    8    -20.34513    2.00000
    9    -20.33596    2.00000
   10    -20.32972    2.00000
   11    -20.31552    2.00000
   12    -20.29982    2.00000
   13    -20.22883    2.00000
   14    -20.19832    2.00000
   15    -20.19099    2.00000
   16    -20.18626    2.00000
   17    -20.16869    2.00000
   18    -20.14536    2.00000
   19    -19.89184    2.00000
   20    -19.02576    2.00000
   21    -18.99887    2.00000
   22    -14.50140    2.00000
   23    -14.47074    2.00000
   24     -4.29863    2.00000
   25     -4.19646    2.00000
   26     -4.01662    2.00000
   27     -3.93479    2.00000
   28     -3.74413    2.00000
   29     -3.53701    2.00000
   30     -3.53046    2.00000
   31     -3.44310    2.00000
   32     -3.32595    2.00000
   33     -3.17129    2.00000
   34     -2.80059    2.00000
   35     -2.70208    2.00000
   36     -2.61910    2.00000
   37     -2.59959    2.00000
   38     -2.57477    2.00000
   39     -2.47627    2.00000
   40     -2.44908    2.00000
   41     -2.43544    2.00000
   42     -2.40283    2.00000
   43     -2.40014    2.00000
   44     -2.39148    2.00000
   45     -2.36867    2.00000
   46     -2.36635    2.00000
   47     -2.33220    2.00000
   48     -2.30942    2.00000
   49     -2.28410    2.00000
   50     -2.25730    2.00000
   51     -2.23440    2.00000
   52     -2.22176    2.00000
   53     -2.20493    2.00000
   54     -2.19535    2.00000
   55     -2.18156    2.00000
   56     -2.17431    2.00000
   57     -2.15113    2.00000
   58     -2.12376    2.00000
   59     -2.09443    2.00000
   60     -2.01412    2.00000
   61     -1.94130    2.00000
   62     -1.89759    2.00000
   63     -1.77859    2.00000
   64     -1.74812    2.00000
   65     -1.69380    2.00000
   66     -1.64700    2.00000
   67     -1.62742    2.00000
   68     -1.58445    2.00000
   69     -1.56842    2.00000
   70     -1.49227    2.00000
   71     -1.46887    2.00000
   72     -1.39835    2.00000
   73     -1.31572    2.00000
   74     -1.30434    2.00000
   75     -1.28136    2.00000
   76     -1.25862    2.00000
   77     -1.21909    2.00000
   78     -1.21134    2.00000
   79     -1.17301    2.00000
   80     -1.16313    2.00000
   81     -1.13998    2.00000
   82     -1.10992    2.00000
   83     -1.08055    2.00000
   84     -0.94795    2.00000
   85     -0.90380    2.00000
   86     -0.77560    2.00000
   87     -0.69556    2.00000
   88     -0.12545    2.00000
   89     -0.09903    2.00000
   90     -0.07722    2.00000
   91     -0.04424    2.00000
   92      0.08746    2.00000
   93      0.10174    2.00000
   94      0.66179    2.00000
   95      0.68973    2.00000
   96      2.81480    1.99993
   97      2.85585    1.99989
   98      2.88064    1.99986
   99      2.89655    1.99983
  100      2.90963    1.99981
  101      2.95240    1.99970
  102      2.96884    1.99965
  103      2.97288    1.99964
  104      2.98707    1.99958
  105      2.99838    1.99953
  106      3.05904    1.99914
  107      3.08618    1.99887
  108      3.14386    1.99800
  109      3.15784    1.99770
  110      3.15950    1.99766
  111      3.16474    1.99753
  112      3.20377    1.99636
  113      3.22393    1.99554
  114      3.23136    1.99520
  115      3.23862    1.99484
  116      3.24788    1.99434
  117      3.28769    1.99158
  118      3.29770    1.99070
  119      3.30334    1.99017
  120      3.33589    1.98641
  121      3.34585    1.98500
  122      3.35388    1.98375
  123      3.46411    1.95186
  124      3.48962    1.93830
  125      3.56211    1.87668
  126      3.62928    1.77204
  127      3.64979    1.72722
  128      3.74914    1.40203
  129      3.76456    1.33543
  130      3.79283    1.20469
  131      3.85335    0.90527
  132      3.90897    0.64333
  133      3.95847    0.44845
  134      3.97420    0.39611
  135      4.08256    0.15424
  136      4.14735    0.08378
  137      4.20525    0.04783
  138      4.22065    0.04115
  139      4.22728    0.03856
  140      4.23967    0.03414
  141      4.24915    0.03110
  142      4.25348    0.02980
  143      4.34302    0.01228
  144      4.35086    0.01136
  145      4.42699    0.00532
  146      4.43062    0.00513
  147      4.43693    0.00482
  148      4.44503    0.00445
  149      4.47132    0.00342
  150      4.59689    0.00098
  151      4.95883    0.00003
  152      5.14257    0.00000
  153      5.26725    0.00000
  154      5.34165    0.00000
  155      5.35152    0.00000
  156      5.98551    0.00000
  157      6.47082    0.00000
  158      6.80918    0.00000
  159      8.09625    0.00000
  160      8.33086    0.00000
  161      9.65291    0.00000
  162      9.92443    0.00000
  163     10.04392    0.00000
  164     10.31070    0.00000
  165     10.33088    0.00000
  166     10.36001    0.00000
  167     10.46808    0.00000
  168     10.71697    0.00000
  169     10.75329    0.00000
  170     10.91155    0.00000
  171     11.04467    0.00000
  172     11.38494    0.00000
  173     11.53603    0.00000
  174     11.66445    0.00000
  175     12.03717    0.00000
  176     12.11336    0.00000
  177     12.84180    0.00000
  178     13.09928    0.00000
  179     13.39545    0.00000
  180     14.36833    0.00000
  181     14.48576    0.00000
  182     14.95848    0.00000
  183     15.04175    0.00000
  184     15.14433    0.00000
  185     15.45197    0.00000
  186     15.65912    0.00000
  187     15.77793    0.00000
  188     16.18319    0.00000
  189     16.26088    0.00000
  190     16.42605    0.00000
  191     16.45781    0.00000
  192     16.48811    0.00000
  193     16.79783    0.00000
  194     16.89026    0.00000
  195     16.93505    0.00000
  196     16.97138    0.00000
  197     17.01327    0.00000
  198     17.10632    0.00000
  199     17.13494    0.00000
  200     17.31657    0.00000
  201     17.40133    0.00000
  202     17.44900    0.00000
  203     17.49023    0.00000

Timing:                              incl.     excl.
-----------------------------------------------------------
Hamiltonian:                         3.609     0.000   0.0% |
 Atomic:                             1.806     0.005   0.0% |
  XC Correction:                     1.801     1.801   0.1% |
 Calculate atomic Hamiltonians:      0.016     0.016   0.0% |
 Communicate:                        0.000     0.000   0.0% |
 Hartree integrate/restrict:         0.009     0.009   0.0% |
 Initialize Hamiltonian:             0.000     0.000   0.0% |
 Poisson:                            1.417     1.417   0.1% |
 XC 3D grid:                         0.355     0.355   0.0% |
 vbar:                               0.005     0.005   0.0% |
LCAO initialization:                14.015     0.272   0.0% |
 LCAO eigensolver:                   1.459     0.000   0.0% |
  Calculate projections:             0.009     0.009   0.0% |
  DenseAtomicCorrection:             0.009     0.009   0.0% |
  Distribute overlap matrix:         0.000     0.000   0.0% |
  Orbital Layouts:                   0.027     0.027   0.0% |
  Potential matrix:                  1.414     1.414   0.1% |
 LCAO to grid:                      11.158    11.158   0.6% |
 Set positions (LCAO WFS):           1.125     0.000   0.0% |
  Basic WFS set positions:           0.002     0.002   0.0% |
  Basis functions set positions:     0.000     0.000   0.0% |
  TCI: Calculate S, T, P:            1.123     1.123   0.1% |
SCF-cycle:                        1837.658     0.135   0.0% |
 Davidson:                        1433.282   321.934  17.3% |------|
  Apply hamiltonian:                42.634    42.634   2.3% ||
  Subspace diag:                   382.964     0.027   0.0% |
   calc_h_matrix:                  156.938   114.173   6.1% |-|
    Apply hamiltonian:              42.765    42.765   2.3% ||
   diagonalize:                      1.836     1.836   0.1% |
   rotate_psi:                     224.163   224.163  12.1% |----|
  calc. matrices:                  455.746   414.104  22.3% |--------|
   Apply hamiltonian:               41.642    41.642   2.2% ||
  diagonalize:                       6.511     6.511   0.4% |
  rotate_psi:                      223.492   223.492  12.0% |----|
 Density:                            8.016     0.004   0.0% |
  Atomic density matrices:           0.622     0.622   0.0% |
  Mix:                               4.194     4.194   0.2% |
  Multipole moments:                 0.126     0.126   0.0% |
  Pseudo density:                    3.070     3.067   0.2% |
   Symmetrize density:               0.003     0.003   0.0% |
 Hamiltonian:                      393.860     0.018   0.0% |
  Atomic:                          259.750     0.564   0.0% |
   XC Correction:                  259.186   259.186  14.0% |-----|
  Calculate atomic Hamiltonians:     2.350     2.350   0.1% |
  Communicate:                       0.001     0.001   0.0% |
  Hartree integrate/restrict:        1.159     1.159   0.1% |
  Poisson:                          77.262    77.262   4.2% |-|
  XC 3D grid:                       52.722    52.722   2.8% ||
  vbar:                              0.598     0.598   0.0% |
 Orthonormalize:                     2.366     0.000   0.0% |
  calc_s_matrix:                     0.488     0.488   0.0% |
  inverse-cholesky:                  0.003     0.003   0.0% |
  projections:                       1.094     1.094   0.1% |
  rotate_psi_s:                      0.780     0.780   0.0% |
Set symmetry:                        0.001     0.001   0.0% |
Other:                               1.335     1.335   0.1% |
-----------------------------------------------------------
Total:                                      1856.618 100.0%

Memory usage: 1.08 GiB
Date: Fri Mar 29 20:36:01 2019
