
  ___ ___ ___ _ _ _  
 |   |   |_  | | | | 
 | | | | | . | | | | 
 |__ |  _|___|_____|  1.4.0
 |___|_|             

User:   murakami@tssm1.eng.shizuoka.ac.jp
Date:   Sat Mar 30 09:15:54 2019
Arch:   x86_64
Pid:    31289
Python: 3.6.5
gpaw:   /home/murakami/.local/lib/python3.6/site-packages/gpaw
_gpaw:  /home/murakami/.local/lib/python3.6/site-packages/
        _gpaw.cpython-36m-x86_64-linux-gnu.so
ase:    /home/murakami/.local/lib/python3.6/site-packages/ase (version 3.16.2)
numpy:  /home/murakami/.local/lib/python3.6/site-packages/numpy (version 1.15.2)
scipy:  /home/murakami/.local/lib/python3.6/site-packages/scipy (version 1.1.0)
units:  Angstrom and eV
cores:  1

Input parameters:
  kpts: {size: (1, 1, 1)}
  maxiter: 300
  xc: PBE

System changes: positions, numbers, cell, pbc, initial_charges, initial_magmoms 

Initialize ...

Fe-setup:
  name: Iron
  id: 37abbd8d6c3c35915a9b583b742da910
  Z: 26
  valence: 8
  core: 18
  charge: 0.0
  file: /home/murakami/Public/gpaw-setups-0.9.20000/Fe.PBE.gz
  cutoffs: 1.06(comp), 2.06(filt), 2.67(core), lmax=2
  valence states:
                energy  radius
    4s(2.00)    -5.291   1.164
    4p(0.00)    -1.326   1.058
    3d(6.00)    -7.505   1.058
    *s          21.920   1.164
    *p          25.885   1.058
    *d          19.706   1.058

  Using partial waves for Fe as LCAO basis

O-setup:
  name: Oxygen
  id: 32ecd46bf208036f09c70b0ec9a88b78
  Z: 8
  valence: 6
  core: 2
  charge: 0.0
  file: /home/murakami/Public/gpaw-setups-0.9.20000/O.PBE.gz
  cutoffs: 0.67(comp), 1.17(filt), 0.83(core), lmax=2
  valence states:
                energy  radius
    2s(2.00)   -23.961   0.688
    2p(4.00)    -9.029   0.598
    *s           3.251   0.688
    *p          18.182   0.598
    *d           0.000   0.619

  Using partial waves for O as LCAO basis

F-setup:
  name: Fluorine
  id: 9cd46ba2a61e170ad72278be75b55cc0
  Z: 9
  valence: 7
  core: 2
  charge: 0.0
  file: /home/murakami/Public/gpaw-setups-0.9.20000/F.PBE.gz
  cutoffs: 0.64(comp), 1.14(filt), 0.74(core), lmax=2
  valence states:
                energy  radius
    2s(2.00)   -29.898   0.635
    2p(5.00)   -11.110   0.635
    *s          -2.687   0.635
    *p          16.102   0.635
    *d           0.000   0.635

  Using partial waves for F as LCAO basis

Reference energy: -479224.937077

Spin-paired calculation

Occupation numbers:
  Fermi-Dirac: width=0.1000 eV

Convergence criteria:
  Maximum total energy change: 0.0005 eV / electron
  Maximum integral of absolute density change: 0.0001 electrons
  Maximum integral of absolute eigenstate change: 4e-08 eV^2
  Maximum number of iterations: 300

Symmetries present (total): 1

  ( 1  0  0)
  ( 0  1  0)
  ( 0  0  1)

1 k-point (Gamma)
1 k-point in the irreducible part of the Brillouin zone
       k-points in crystal coordinates                weights
   0:     0.00000000    0.00000000    0.00000000          1/1

Wave functions: Uniform real-space grid
  Kinetic energy operator: 8*3+1=25 point O(h^6) finite-difference Laplacian
  ScaLapack parameters: grid=1x1, blocksize=None 

Eigensolver
   Davidson(niter=1, smin=None, normalize=True) 

Densities:
  Coarse grid: 16*104*32 grid
  Fine grid: 32*208*64 grid
  Total Charge: 0.000000 

Density mixing:
  Method: separate
  Backend: pulay
  Linear mixing parameter: 0.05
  Mixing with 5 old densities
  Damping of long wave oscillations: 50 

Hamiltonian:
  XC and Coulomb potentials evaluated on a 32*208*64 grid
  Using the PBE Exchange-Correlation functional
  Interpolation: tri-quintic (5. degree polynomial)
  Poisson solver: Jacobi solver with 5 multi-grid levels
    Coarsest grid: 2 x 13 x 4 points
    Stencil: 8*3+1=25 point O(h^6) finite-difference Laplacian
    Max iterations: 1000
    Tolerance: 2.000000e-10 

Memory estimate:
  Process memory now: 1103.97 MiB
  Calculator: 269.53 MiB
    Density: 69.97 MiB
      Arrays: 10.56 MiB
      Localized functions: 55.35 MiB
      Mixer: 4.06 MiB
    Hamiltonian: 19.00 MiB
      Arrays: 6.91 MiB
      XC: 0.00 MiB
      Poisson: 7.89 MiB
      vbar: 4.20 MiB
    Wavefunctions: 180.56 MiB
      Arrays psit_nG: 82.88 MiB
      Eigensolver: 88.09 MiB
      Projections: 0.82 MiB
      Projectors: 8.78 MiB

Total number of cores used: 1

Number of atoms: 36
Number of atomic orbitals: 204
Number of bands in calculation: 204
Bands to converge: occupied states only
Number of valence electrons: 262

... initialized

Initializing position-dependent things.

Density initialized from atomic densities
Creating initial wave functions:
  204 bands from LCAO basis set

                                
                                
                                
                                
                       F        
                                
                  F             
                                
                      F         
                FFee            
             O       F          
                  F Fe          
                  F             
           F Fe F     Fe        
            F    F  F           
         F     Fee              
             FF    F            
         FeF                    
       F     F  F               
           Fe                   
         F     F                
       O     Fe                 
                                
       Fe                       
                                
                                
                                
                                

Positions:
   0 Fe     0.000000    3.425973    3.405553    ( 0.0000,  0.0000,  0.0000)
   1 Fe     0.000000   17.123411    3.405553    ( 0.0000,  0.0000,  0.0000)
   2 Fe     0.000000   13.700665    0.009448    ( 0.0000,  0.0000,  0.0000)
   3 Fe    -0.027787    6.848719    0.041180    ( 0.0000,  0.0000,  0.0000)
   4 Fe     1.626314    3.411629   -0.015009    ( 0.0000,  0.0000,  0.0000)
   5 Fe     1.626314   17.137755   -0.015009    ( 0.0000,  0.0000,  0.0000)
   6 Fe     1.626314   13.686321    3.381097    ( 0.0000,  0.0000,  0.0000)
   7 Fe     1.626314    6.863063    3.381097    ( 0.0000,  0.0000,  0.0000)
   8 Fe     0.000000    0.000000    0.059737    ( 0.0000,  0.0000,  0.0000)
   9 Fe     0.000000   10.274692    3.478712    ( 0.0000,  0.0000,  0.0000)
  10 Fe     1.626314    0.201507    3.193604    ( 0.0000,  0.0000,  0.0000)
  11 Fe     1.626252   10.274692    6.589711    ( 0.0000,  0.0000,  0.0000)
  12 O      0.000000    0.000000    2.135213    ( 0.0000,  0.0000,  0.0000)
  13 O      0.000000   10.274692    5.531319    ( 0.0000,  0.0000,  0.0000)
  14 F     -0.008945    3.455769    1.380932    ( 0.0000,  0.0000,  0.0000)
  15 F      0.000000   17.093615    1.380850    ( 0.0000,  0.0000,  0.0000)
  16 F      0.000000   13.730461    4.776955    ( 0.0000,  0.0000,  0.0000)
  17 F     -0.003669    6.818923    4.776989    ( 0.0000,  0.0000,  0.0000)
  18 F      0.000000    3.460146    5.429327    ( 0.0000,  0.0000,  0.0000)
  19 F      0.000000   17.089238    5.426195    ( 0.0000,  0.0000,  0.0000)
  20 F      0.000000   13.734838    2.033221    ( 0.0000,  0.0000,  0.0000)
  21 F      0.000000    6.814546    2.033221    ( 0.0000,  0.0000,  0.0000)
  22 F      1.611404    1.405002    6.752433    ( 0.0000,  0.0000,  0.0000)
  23 F      1.626314   19.144382    6.752295    ( 0.0000,  0.0000,  0.0000)
  24 F      1.626314   11.514909    3.356190    ( 0.0000,  0.0000,  0.0000)
  25 F      1.626314    8.869690    3.356190    ( 0.0000,  0.0000,  0.0000)
  26 F      1.626314    2.135718    3.419642    ( 0.0000,  0.0000,  0.0000)
  27 F      1.626314   18.531763    3.419642    ( 0.0000,  0.0000,  0.0000)
  28 F      1.626314   12.292313    0.023537    ( 0.0000,  0.0000,  0.0000)
  29 F      1.626314    8.257071    0.023537    ( 0.0000,  0.0000,  0.0000)
  30 F      1.626314    4.809789    3.391428    ( 0.0000,  0.0000,  0.0000)
  31 F      1.632400   15.739595    3.391371    ( 0.0000,  0.0000,  0.0000)
  32 F      1.626314   15.084481   -0.004678    ( 0.0000,  0.0000,  0.0000)
  33 F      1.626314    5.464903   -0.004678    ( 0.0000,  0.0000,  0.0000)
  34 F      0.000000    0.000000    4.718827    ( 0.0000,  0.0000,  0.0000)
  35 F      0.004850   10.274692    1.322677    ( 0.0000,  0.0000,  0.0000)

Unit cell:
           periodic     x           y           z      points  spacing
  1. axis:    yes    3.252628    0.000000   -0.030072    16     0.2033
  2. axis:    yes    0.000000   20.549384    0.000000   104     0.1976
  3. axis:    yes    0.000000    0.000000    6.792211    32     0.2122

  Lengths:   3.252767  20.549384   6.792211
  Angles:   90.000000  90.529710  90.000000

Effective grid spacing dv^(1/3) = 0.2043

                     log10-error:    total        iterations:
           time      wfs    density  energy       fermi  poisson
iter:   1  09:16:20  +1.74   +inf  -213.675553    3      19     
iter:   2  09:16:28  +0.20   +inf  -214.572948    3             
iter:   3  09:16:37  -0.38   +inf  -214.832062    2             
iter:   4  09:16:48  -0.65  -1.12  -212.604656    3      9      
iter:   5  09:16:59  -0.26  -1.16  -264.930169    35     15     
iter:   6  09:17:11  -0.36  -1.06  -249.609923    4      15     
iter:   7  09:17:22  -0.31  -1.08  -252.640323    3      15     
iter:   8  09:17:33  -0.45  -1.10  -229.935725    3      15     
iter:   9  09:17:45  -0.65  -1.22  -218.501064    3      14     
iter:  10  09:17:56  -0.68  -1.23  -211.256356    3      13     
iter:  11  09:18:07  -1.10  -1.36  -207.546666    3      10     
iter:  12  09:18:18  -1.45  -1.43  -207.814404    3      10     
iter:  13  09:18:29  -1.71  -1.43  -206.611626    3      11     
iter:  14  09:18:40  -1.90  -1.46  -209.104080    3      11     
iter:  15  09:18:51  -1.59  -1.39  -211.417004    4      13     
iter:  16  09:19:02  -1.48  -1.34  -207.459470    2      12     
iter:  17  09:19:13  -1.75  -1.46  -206.836812    3      10     
iter:  18  09:19:24  -1.46  -1.50  -209.453012    3      9      
iter:  19  09:19:35  -1.06  -1.46  -209.517965    4      12     
iter:  20  09:19:47  -1.67  -1.42  -207.045886    3      12     
iter:  21  09:19:58  -1.26  -1.52  -228.244136    36     14     
iter:  22  09:20:10  -1.17  -1.22  -207.896497    37     14     
iter:  23  09:20:21  -1.65  -1.51  -207.384154    2      11     
iter:  24  09:20:32  -2.00  -1.54  -206.991978    3      9      
iter:  25  09:20:44  -1.81  -1.60  -208.245373    3      10     
iter:  26  09:20:55  -1.78  -1.55  -208.373860    3      12     
iter:  27  09:21:06  -1.37  -1.54  -225.472036    37     14     
iter:  28  09:21:18  -1.02  -1.24  -207.554888    3      13     
iter:  29  09:21:29  -1.68  -1.61  -207.891930    3      10     
iter:  30  09:21:41  -1.96  -1.59  -206.684032    2      10     
iter:  31  09:21:52  -2.54  -1.68  -206.959729    2      8      
iter:  32  09:22:03  -2.62  -1.68  -206.753911    3      8      
iter:  33  09:22:14  -1.42  -1.71  -232.074768    3      14     
iter:  34  09:22:26  -1.03  -1.21  -206.949276    4      14     
iter:  35  09:22:37  -1.73  -1.72  -209.605118    3      11     
iter:  36  09:22:49  -1.65  -1.58  -210.178701    3      12     
iter:  37  09:23:00  -1.80  -1.49  -206.740464    3      11     
iter:  38  09:23:11  -2.47  -1.76  -206.483187    2      8      
iter:  39  09:23:23  -1.98  -1.81  -210.806596    3      12     
iter:  40  09:23:34  -1.71  -1.55  -206.773402    3      12     
iter:  41  09:23:45  -2.14  -1.80  -207.877519    2      9      
iter:  42  09:23:57  -1.85  -1.68  -210.047697    4      12     
iter:  43  09:24:08  -1.71  -1.54  -206.612411    3      11     
iter:  44  09:24:19  -2.46  -1.83  -206.659233    3      7      
iter:  45  09:24:31  -1.84  -1.83  -215.589215    3      13     
iter:  46  09:24:42  -1.50  -1.42  -206.868946    3      13     
iter:  47  09:24:53  -2.06  -1.81  -206.852784    3      6      
iter:  48  09:25:05  -1.78  -1.83  -216.506905    3      12     
iter:  49  09:25:16  -1.54  -1.39  -207.450266    3      13     
iter:  50  09:25:27  -2.12  -1.76  -206.636586    3      9      
iter:  51  09:25:38  -2.14  -1.88  -208.331585    3      11     
iter:  52  09:25:50  -1.81  -1.73  -207.077803    3      10     
iter:  53  09:26:01  -2.32  -1.85  -206.635086    2      8      
iter:  54  09:26:12  -2.08  -1.92  -210.667159    4      12     
iter:  55  09:26:24  -1.74  -1.55  -206.600388    3      12     
iter:  56  09:26:35  -2.53  -1.94  -206.560488    2      6      
iter:  57  09:26:46  -2.39  -1.96  -207.609107    3      10     
iter:  58  09:26:57  -2.01  -1.80  -207.349777    3      11     
iter:  59  09:27:09  -1.92  -1.86  -209.050251    3      12     
iter:  60  09:27:20  -1.75  -1.66  -210.533322    3      12     
iter:  61  09:27:31  -1.66  -1.61  -206.576953    3      12     
iter:  62  09:27:43  -2.48  -2.01  -206.408250    3      6      
iter:  63  09:27:54  -2.79  -2.08  -207.109438    2      9      
iter:  64  09:28:05  -2.38  -1.88  -206.678790    3      10     
iter:  65  09:28:16  -2.53  -2.00  -206.741935    3      10     
iter:  66  09:28:28  -2.20  -1.99  -208.046380    3      11     
iter:  67  09:28:39  -2.06  -1.81  -206.424750    3      10     
iter:  68  09:28:50  -2.72  -2.13  -206.389387    2      7      
iter:  69  09:29:01  -2.49  -2.11  -207.552353    2      10     
iter:  70  09:29:13  -2.16  -1.83  -206.859390    3      11     
iter:  71  09:29:24  -2.37  -1.98  -206.497849    3      10     
iter:  72  09:29:35  -2.48  -2.08  -207.361521    2      10     
iter:  73  09:29:47  -2.28  -1.91  -206.374183    3      10     
iter:  74  09:29:58  -2.89  -2.18  -206.386560    2      6      
iter:  75  09:30:09  -2.56  -2.16  -207.376131    3      10     
iter:  76  09:30:20  -2.30  -1.88  -206.481579    3      10     
iter:  77  09:30:31  -2.51  -2.13  -206.501288    3      7      
iter:  78  09:30:43  -2.48  -2.14  -207.165777    3      10     
iter:  79  09:30:54  -2.36  -1.95  -206.420606    3      9      
iter:  80  09:31:05  -3.04  -2.19  -206.348819    2      8      
iter:  81  09:31:16  -2.46  -2.25  -207.520670    3      10     
iter:  82  09:31:28  -2.32  -1.87  -206.381458    3      10     
iter:  83  09:31:39  -2.92  -2.24  -206.322948    2      5      
iter:  84  09:31:50  -2.74  -2.30  -206.709437    2      8      
iter:  85  09:32:01  -2.71  -2.10  -206.381632    3      9      
iter:  86  09:32:12  -3.38  -2.25  -206.321301    2      7      
iter:  87  09:32:24  -2.83  -2.31  -206.460699    3      8      
iter:  88  09:32:35  -2.54  -2.20  -206.339708    3      7      
iter:  89  09:32:46  -3.07  -2.34  -206.354389    2      7      
iter:  90  09:32:57  -2.87  -2.32  -206.393545    3      8      
iter:  91  09:33:08  -2.73  -2.38  -206.580707    2      8      
iter:  92  09:33:19  -2.76  -2.19  -206.495735    2      10     
iter:  93  09:33:31  -2.55  -2.19  -206.681862    3      9      
iter:  94  09:33:42  -2.78  -2.18  -206.328411    3      9      
iter:  95  09:33:53  -3.37  -2.52  -206.279279    2      6      
iter:  96  09:34:04  -4.03  -2.63  -206.282381    2      5      
iter:  97  09:34:15  -3.58  -2.62  -206.304500    2      6      
iter:  98  09:34:26  -3.50  -2.51  -206.286892    2      6      
iter:  99  09:34:37  -3.12  -2.65  -206.544897    2      8      
iter: 100  09:34:48  -2.92  -2.23  -206.495438    2      10     
iter: 101  09:35:00  -3.00  -2.30  -206.291548    2      8      
iter: 102  09:35:11  -3.67  -2.63  -206.277277    2      5      
iter: 103  09:35:22  -3.92  -2.72  -206.298455    2      6      
iter: 104  09:35:33  -3.82  -2.62  -206.277684    2      5      
iter: 105  09:35:44  -3.68  -2.74  -206.347352    2      7      
iter: 106  09:35:55  -3.49  -2.50  -206.369146    2      8      
iter: 107  09:36:06  -3.24  -2.47  -206.299820    2      7      
iter: 108  09:36:17  -3.39  -2.60  -206.284853    2      6      
iter: 109  09:36:28  -3.87  -2.72  -206.285817    2      6      
iter: 110  09:36:39  -3.68  -2.78  -206.284176    2      5      
iter: 111  09:36:50  -4.03  -2.79  -206.282284    2      5      
iter: 112  09:37:01  -3.76  -2.83  -206.334707    2      7      
iter: 113  09:37:12  -3.65  -2.52  -206.282736    2      7      
iter: 114  09:37:23  -3.66  -2.85  -206.344359    2      8      
iter: 115  09:37:34  -3.55  -2.55  -206.290596    2      7      
iter: 116  09:37:45  -3.83  -2.91  -206.278243    2      5      
iter: 117  09:37:56  -4.15  -2.89  -206.274676    2      4      
iter: 118  09:38:07  -4.13  -3.11  -206.297376    2      6      
iter: 119  09:38:19  -3.92  -2.71  -206.274219    2      6      
iter: 120  09:38:29  -4.65  -3.17  -206.275715    2      4      
iter: 121  09:38:40  -4.60  -3.07  -206.279974    2      5      
iter: 122  09:38:51  -4.48  -3.04  -206.275501    2      5      
iter: 123  09:39:02  -4.38  -3.06  -206.275768    2      5      
iter: 124  09:39:13  -4.16  -3.16  -206.290587    2      5      
iter: 125  09:39:24  -4.20  -2.82  -206.276114    2      5      
iter: 126  09:39:35  -4.82  -3.20  -206.275553    2      4      
iter: 127  09:39:46  -5.11  -3.22  -206.273130    2      4      
iter: 128  09:39:57  -4.97  -3.31  -206.272605    2      4      
iter: 129  09:40:08  -4.57  -3.27  -206.275324    2      4      
iter: 130  09:40:19  -4.78  -3.19  -206.274155    2      4      
iter: 131  09:40:30  -5.22  -3.32  -206.274770    2      4      
iter: 132  09:40:41  -5.12  -3.30  -206.273438    2      4      
iter: 133  09:40:52  -5.33  -3.28  -206.272769    1      3      
iter: 134  09:41:03  -5.85  -3.42  -206.273962    2      3      
iter: 135  09:41:14  -5.17  -3.41  -206.273399    2      4      
iter: 136  09:41:25  -4.94  -3.33  -206.273316    2      4      
iter: 137  09:41:36  -5.26  -3.38  -206.273012    2      4      
iter: 138  09:41:47  -4.87  -3.36  -206.273448    2      5      
iter: 139  09:41:58  -4.60  -3.25  -206.275171    2      5      
iter: 140  09:42:09  -5.08  -3.38  -206.273934    2      5      
iter: 141  09:42:20  -5.17  -3.47  -206.272267    2      4      
iter: 142  09:42:31  -5.01  -3.83  -206.275589    2      4      
iter: 143  09:42:42  -5.01  -3.47  -206.273974    2      4      
iter: 144  09:42:53  -5.61  -3.66  -206.273158    2      4      
iter: 145  09:43:03  -5.70  -4.01  -206.272190    2      3      
iter: 146  09:43:14  -5.80  -3.86  -206.272936    2      3      
iter: 147  09:43:25  -5.97  -4.17  -206.272635    2      3      
iter: 148  09:43:35  -5.91  -3.74  -206.273003    2      3      
iter: 149  09:43:46  -6.59  -4.09  -206.272692    2      2      
iter: 150  09:43:56  -5.95  -4.22  -206.273527    2      3      
iter: 151  09:44:07  -5.84  -3.62  -206.272678    2      3      
iter: 152  09:44:18  -6.57  -4.10  -206.272903    2      2      
iter: 153  09:44:28  -6.66  -4.23  -206.272761    2      2      
iter: 154  09:44:39  -6.76  -4.41  -206.273157    2      2      
iter: 155  09:44:49  -6.46  -4.16  -206.272634    2      2      
iter: 156  09:45:00  -6.86  -4.13  -206.272878    2      2      
iter: 157  09:45:10  -7.71  -4.40  -206.272805    2      1      

Converged after 157 iterations.

Dipole moment: (-24.296622, -47.472977, -34.128118) |e|*Ang

Energy contributions relative to reference atoms: (reference = -479224.937077)

Kinetic:       +177.829642
Potential:     -181.630099
External:        +0.000000
XC:            -213.068604
Entropy (-ST):   -1.399327
Local:          +11.295919
--------------------------
Free energy:   -206.972468
Extrapolated:  -206.272805

Fermi level: 3.84882

 Band  Eigenvalues  Occupancy
    0    -21.14945    2.00000
    1    -20.77366    2.00000
    2    -20.75148    2.00000
    3    -20.63896    2.00000
    4    -20.60785    2.00000
    5    -20.54269    2.00000
    6    -20.37771    2.00000
    7    -20.36952    2.00000
    8    -20.36796    2.00000
    9    -20.36392    2.00000
   10    -20.35672    2.00000
   11    -20.30913    2.00000
   12    -20.28455    2.00000
   13    -20.24712    2.00000
   14    -20.22402    2.00000
   15    -20.19321    2.00000
   16    -20.16886    2.00000
   17    -20.15771    2.00000
   18    -20.14324    2.00000
   19    -19.56238    2.00000
   20    -19.02520    2.00000
   21    -18.99591    2.00000
   22    -14.48874    2.00000
   23    -14.41411    2.00000
   24     -4.39131    2.00000
   25     -4.20343    2.00000
   26     -4.04606    2.00000
   27     -3.95475    2.00000
   28     -3.86599    2.00000
   29     -3.66880    2.00000
   30     -3.52742    2.00000
   31     -3.43161    2.00000
   32     -3.34027    2.00000
   33     -3.08127    2.00000
   34     -2.90498    2.00000
   35     -2.82471    2.00000
   36     -2.68426    2.00000
   37     -2.65141    2.00000
   38     -2.62061    2.00000
   39     -2.57966    2.00000
   40     -2.55915    2.00000
   41     -2.43722    2.00000
   42     -2.42551    2.00000
   43     -2.42318    2.00000
   44     -2.41974    2.00000
   45     -2.41046    2.00000
   46     -2.37452    2.00000
   47     -2.35408    2.00000
   48     -2.33771    2.00000
   49     -2.31101    2.00000
   50     -2.30371    2.00000
   51     -2.27211    2.00000
   52     -2.23460    2.00000
   53     -2.20469    2.00000
   54     -2.18873    2.00000
   55     -2.16952    2.00000
   56     -2.15492    2.00000
   57     -2.15033    2.00000
   58     -2.11335    2.00000
   59     -2.08768    2.00000
   60     -1.94981    2.00000
   61     -1.88690    2.00000
   62     -1.83201    2.00000
   63     -1.80943    2.00000
   64     -1.75942    2.00000
   65     -1.71866    2.00000
   66     -1.68476    2.00000
   67     -1.67249    2.00000
   68     -1.61635    2.00000
   69     -1.57609    2.00000
   70     -1.54824    2.00000
   71     -1.44344    2.00000
   72     -1.44249    2.00000
   73     -1.38173    2.00000
   74     -1.35215    2.00000
   75     -1.27077    2.00000
   76     -1.22146    2.00000
   77     -1.20546    2.00000
   78     -1.19775    2.00000
   79     -1.12716    2.00000
   80     -1.12029    2.00000
   81     -1.08858    2.00000
   82     -1.08190    2.00000
   83     -1.07363    2.00000
   84     -0.98887    2.00000
   85     -0.80680    2.00000
   86     -0.75119    2.00000
   87     -0.56407    2.00000
   88     -0.12361    2.00000
   89     -0.10615    2.00000
   90     -0.09968    2.00000
   91     -0.05540    2.00000
   92      0.11820    2.00000
   93      0.13101    2.00000
   94      0.68154    2.00000
   95      0.70555    2.00000
   96      2.83856    1.99992
   97      2.88165    1.99987
   98      2.90360    1.99984
   99      2.91692    1.99982
  100      2.93397    1.99979
  101      2.97257    1.99969
  102      2.98683    1.99964
  103      2.99560    1.99961
  104      3.00894    1.99955
  105      3.03082    1.99944
  106      3.07295    1.99915
  107      3.11026    1.99876
  108      3.15100    1.99814
  109      3.16653    1.99783
  110      3.17735    1.99758
  111      3.18116    1.99748
  112      3.21114    1.99660
  113      3.23120    1.99585
  114      3.24805    1.99509
  115      3.25772    1.99460
  116      3.27387    1.99365
  117      3.30803    1.99108
  118      3.32532    1.98940
  119      3.34350    1.98730
  120      3.34788    1.98674
  121      3.36615    1.98410
  122      3.37352    1.98290
  123      3.48558    1.94846
  124      3.50268    1.93914
  125      3.57597    1.87738
  126      3.64653    1.76637
  127      3.67362    1.70441
  128      3.75769    1.42655
  129      3.78240    1.32038
  130      3.81578    1.16369
  131      3.86067    0.94079
  132      3.91383    0.68593
  133      3.96795    0.46604
  134      3.98317    0.41387
  135      4.08826    0.16720
  136      4.16926    0.07800
  137      4.21937    0.04800
  138      4.24854    0.03607
  139      4.25747    0.03304
  140      4.27261    0.02846
  141      4.30884    0.01990
  142      4.34776    0.01353
  143      4.36446    0.01146
  144      4.43278    0.00580
  145      4.44182    0.00530
  146      4.45764    0.00453
  147      4.46499    0.00421
  148      4.48063    0.00360
  149      4.48519    0.00344
  150      4.60887    0.00100
  151      4.97247    0.00003
  152      5.13714    0.00001
  153      5.27492    0.00000
  154      5.31389    0.00000
  155      5.35955    0.00000
  156      5.97605    0.00000
  157      6.45033    0.00000
  158      6.81483    0.00000
  159      8.06571    0.00000
  160      8.36678    0.00000
  161      9.73013    0.00000
  162      9.92568    0.00000
  163      9.98649    0.00000
  164     10.25565    0.00000
  165     10.33654    0.00000
  166     10.37472    0.00000
  167     10.42738    0.00000
  168     10.72069    0.00000
  169     10.72821    0.00000
  170     10.92173    0.00000
  171     11.03954    0.00000
  172     11.39114    0.00000
  173     11.52051    0.00000
  174     11.72764    0.00000
  175     11.99822    0.00000
  176     12.10432    0.00000
  177     12.82616    0.00000
  178     13.07465    0.00000
  179     13.36536    0.00000
  180     14.32436    0.00000
  181     14.54350    0.00000
  182     14.93037    0.00000
  183     14.99707    0.00000
  184     15.11617    0.00000
  185     15.50659    0.00000
  186     15.61496    0.00000
  187     15.75892    0.00000
  188     16.17158    0.00000
  189     16.27514    0.00000
  190     16.37308    0.00000
  191     16.46160    0.00000
  192     16.47924    0.00000
  193     16.80248    0.00000
  194     16.90506    0.00000
  195     16.90930    0.00000
  196     16.95574    0.00000
  197     16.99212    0.00000
  198     17.12704    0.00000
  199     17.17090    0.00000
  200     17.29176    0.00000
  201     17.33618    0.00000
  202     17.39905    0.00000
  203     17.50712    0.00000

Timing:                              incl.     excl.
-----------------------------------------------------------
Hamiltonian:                         3.070     0.000   0.0% |
 Atomic:                             1.655     0.004   0.0% |
  XC Correction:                     1.651     1.651   0.1% |
 Calculate atomic Hamiltonians:      0.014     0.014   0.0% |
 Communicate:                        0.000     0.000   0.0% |
 Hartree integrate/restrict:         0.005     0.005   0.0% |
 Initialize Hamiltonian:             0.000     0.000   0.0% |
 Poisson:                            1.067     1.067   0.1% |
 XC 3D grid:                         0.325     0.325   0.0% |
 vbar:                               0.003     0.003   0.0% |
LCAO initialization:                11.279     0.235   0.0% |
 LCAO eigensolver:                   1.417     0.000   0.0% |
  Calculate projections:             0.008     0.008   0.0% |
  DenseAtomicCorrection:             0.009     0.009   0.0% |
  Distribute overlap matrix:         0.000     0.000   0.0% |
  Orbital Layouts:                   0.025     0.025   0.0% |
  Potential matrix:                  1.376     1.376   0.1% |
 LCAO to grid:                       8.592     8.592   0.5% |
 Set positions (LCAO WFS):           1.035     0.000   0.0% |
  Basic WFS set positions:           0.001     0.001   0.0% |
  Basis functions set positions:     0.000     0.000   0.0% |
  TCI: Calculate S, T, P:            1.033     1.033   0.1% |
SCF-cycle:                        1741.420     0.132   0.0% |
 Davidson:                        1346.943   283.861  16.2% |-----|
  Apply hamiltonian:                40.105    40.105   2.3% ||
  Subspace diag:                   364.889     0.027   0.0% |
   calc_h_matrix:                  149.110   108.976   6.2% |-|
    Apply hamiltonian:              40.134    40.134   2.3% ||
   diagonalize:                      1.748     1.748   0.1% |
   rotate_psi:                     214.004   214.004  12.2% |----|
  calc. matrices:                  436.217   396.124  22.5% |--------|
   Apply hamiltonian:               40.093    40.093   2.3% ||
  diagonalize:                       6.340     6.340   0.4% |
  rotate_psi:                      215.530   215.530  12.3% |----|
 Density:                            7.390     0.004   0.0% |
  Atomic density matrices:           0.620     0.620   0.0% |
  Mix:                               3.813     3.813   0.2% |
  Multipole moments:                 0.143     0.143   0.0% |
  Pseudo density:                    2.810     2.806   0.2% |
   Symmetrize density:               0.004     0.004   0.0% |
 Hamiltonian:                      384.859     0.020   0.0% |
  Atomic:                          257.006     0.604   0.0% |
   XC Correction:                  256.402   256.402  14.6% |-----|
  Calculate atomic Hamiltonians:     2.247     2.247   0.1% |
  Communicate:                       0.001     0.001   0.0% |
  Hartree integrate/restrict:        0.978     0.978   0.1% |
  Poisson:                          72.909    72.909   4.1% |-|
  XC 3D grid:                       51.212    51.212   2.9% ||
  vbar:                              0.486     0.486   0.0% |
 Orthonormalize:                     2.095     0.000   0.0% |
  calc_s_matrix:                     0.467     0.467   0.0% |
  inverse-cholesky:                  0.002     0.002   0.0% |
  projections:                       0.891     0.891   0.1% |
  rotate_psi_s:                      0.735     0.735   0.0% |
Set symmetry:                        0.001     0.001   0.0% |
Other:                               1.083     1.083   0.1% |
-----------------------------------------------------------
Total:                                      1756.853 100.0%

Memory usage: 1.08 GiB
Date: Sat Mar 30 09:45:10 2019
