
  ___ ___ ___ _ _ _  
 |   |   |_  | | | | 
 | | | | | . | | | | 
 |__ |  _|___|_____|  1.4.0
 |___|_|             

User:   murakami@tssm1.eng.shizuoka.ac.jp
Date:   Sat Mar 30 07:09:35 2019
Arch:   x86_64
Pid:    31289
Python: 3.6.5
gpaw:   /home/murakami/.local/lib/python3.6/site-packages/gpaw
_gpaw:  /home/murakami/.local/lib/python3.6/site-packages/
        _gpaw.cpython-36m-x86_64-linux-gnu.so
ase:    /home/murakami/.local/lib/python3.6/site-packages/ase (version 3.16.2)
numpy:  /home/murakami/.local/lib/python3.6/site-packages/numpy (version 1.15.2)
scipy:  /home/murakami/.local/lib/python3.6/site-packages/scipy (version 1.1.0)
units:  Angstrom and eV
cores:  1

Input parameters:
  kpts: {size: (1, 1, 1)}
  maxiter: 300
  xc: PBE

System changes: positions, numbers, cell, pbc, initial_charges, initial_magmoms 

Initialize ...

Fe-setup:
  name: Iron
  id: 37abbd8d6c3c35915a9b583b742da910
  Z: 26
  valence: 8
  core: 18
  charge: 0.0
  file: /home/murakami/Public/gpaw-setups-0.9.20000/Fe.PBE.gz
  cutoffs: 1.06(comp), 2.06(filt), 2.67(core), lmax=2
  valence states:
                energy  radius
    4s(2.00)    -5.291   1.164
    4p(0.00)    -1.326   1.058
    3d(6.00)    -7.505   1.058
    *s          21.920   1.164
    *p          25.885   1.058
    *d          19.706   1.058

  Using partial waves for Fe as LCAO basis

O-setup:
  name: Oxygen
  id: 32ecd46bf208036f09c70b0ec9a88b78
  Z: 8
  valence: 6
  core: 2
  charge: 0.0
  file: /home/murakami/Public/gpaw-setups-0.9.20000/O.PBE.gz
  cutoffs: 0.67(comp), 1.17(filt), 0.83(core), lmax=2
  valence states:
                energy  radius
    2s(2.00)   -23.961   0.688
    2p(4.00)    -9.029   0.598
    *s           3.251   0.688
    *p          18.182   0.598
    *d           0.000   0.619

  Using partial waves for O as LCAO basis

F-setup:
  name: Fluorine
  id: 9cd46ba2a61e170ad72278be75b55cc0
  Z: 9
  valence: 7
  core: 2
  charge: 0.0
  file: /home/murakami/Public/gpaw-setups-0.9.20000/F.PBE.gz
  cutoffs: 0.64(comp), 1.14(filt), 0.74(core), lmax=2
  valence states:
                energy  radius
    2s(2.00)   -29.898   0.635
    2p(5.00)   -11.110   0.635
    *s          -2.687   0.635
    *p          16.102   0.635
    *d           0.000   0.635

  Using partial waves for F as LCAO basis

Reference energy: -479224.937077

Spin-paired calculation

Occupation numbers:
  Fermi-Dirac: width=0.1000 eV

Convergence criteria:
  Maximum total energy change: 0.0005 eV / electron
  Maximum integral of absolute density change: 0.0001 electrons
  Maximum integral of absolute eigenstate change: 4e-08 eV^2
  Maximum number of iterations: 300

Symmetries present (total): 1

  ( 1  0  0)
  ( 0  1  0)
  ( 0  0  1)

1 k-point (Gamma)
1 k-point in the irreducible part of the Brillouin zone
       k-points in crystal coordinates                weights
   0:     0.00000000    0.00000000    0.00000000          1/1

Wave functions: Uniform real-space grid
  Kinetic energy operator: 6*3+1=19 point O(h^6) finite-difference Laplacian
  ScaLapack parameters: grid=1x1, blocksize=None 

Eigensolver
   Davidson(niter=1, smin=None, normalize=True) 

Densities:
  Coarse grid: 16*104*32 grid
  Fine grid: 32*208*64 grid
  Total Charge: 0.000000 

Density mixing:
  Method: separate
  Backend: pulay
  Linear mixing parameter: 0.05
  Mixing with 5 old densities
  Damping of long wave oscillations: 50 

Hamiltonian:
  XC and Coulomb potentials evaluated on a 32*208*64 grid
  Using the PBE Exchange-Correlation functional
  Interpolation: tri-quintic (5. degree polynomial)
  Poisson solver: Jacobi solver with 5 multi-grid levels
    Coarsest grid: 2 x 13 x 4 points
    Stencil: 6*3+1=19 point O(h^6) finite-difference Laplacian
    Max iterations: 1000
    Tolerance: 2.000000e-10 

Memory estimate:
  Process memory now: 1103.97 MiB
  Calculator: 270.00 MiB
    Density: 70.35 MiB
      Arrays: 10.56 MiB
      Localized functions: 55.73 MiB
      Mixer: 4.06 MiB
    Hamiltonian: 19.03 MiB
      Arrays: 6.91 MiB
      XC: 0.00 MiB
      Poisson: 7.89 MiB
      vbar: 4.23 MiB
    Wavefunctions: 180.63 MiB
      Arrays psit_nG: 82.88 MiB
      Eigensolver: 88.09 MiB
      Projections: 0.82 MiB
      Projectors: 8.84 MiB

Total number of cores used: 1

Number of atoms: 36
Number of atomic orbitals: 204
Number of bands in calculation: 204
Bands to converge: occupied states only
Number of valence electrons: 262

... initialized

Initializing position-dependent things.

Density initialized from atomic densities
Creating initial wave functions:
  204 bands from LCAO basis set

              .-------.  
             /|  F    |  
            / |       |  
           /  |       |  
          / F |       |  
         /    |  F    |  
        /   Fe|       |  
       /  FFe |F      |  
      /O      Fe------.  
     /      F/       /   
    /  Fe F F   Fe  /    
   / F     F   F   /     
  /F  F   /       Fe     
 *     F Fe  F   /       
 |   F  F       /        
 F Fe  /       /         
 |    F   F   /          
 | F Fe      /           
 O  /   F   /            
 | /   Fe  /             
 |/       /              
 Fe------*               

Positions:
   0 Fe     0.005425    3.402543    3.405553    ( 0.0000,  0.0000,  0.0000)
   1 Fe     0.000000   17.006309    3.405553    ( 0.0000,  0.0000,  0.0000)
   2 Fe    -0.006001   13.606969    0.009448    ( 0.0000,  0.0000,  0.0000)
   3 Fe     0.000000    6.801883    0.009448    ( 0.0000,  0.0000,  0.0000)
   4 Fe     1.626314    3.388298    0.000027    ( 0.0000,  0.0000,  0.0000)
   5 Fe     1.626314   17.020554    0.000027    ( 0.0000,  0.0000,  0.0000)
   6 Fe     1.626314   13.592724    3.396133    ( 0.0000,  0.0000,  0.0000)
   7 Fe     1.626314    6.816128    3.396133    ( 0.0000,  0.0000,  0.0000)
   8 Fe     0.000000    0.000000    0.082607    ( 0.0000,  0.0000,  0.0000)
   9 Fe     0.000000   10.204426    3.478712    ( 0.0000,  0.0000,  0.0000)
  10 Fe     1.626314    0.000000    3.208640    ( 0.0000,  0.0000,  0.0000)
  11 Fe     1.626314   10.204426    6.604746    ( 0.0000,  0.0000,  0.0000)
  12 O      0.000000    0.000000    2.125670    ( 0.0000,  0.0000,  0.0000)
  13 O      0.000000   10.204426    5.531319    ( 0.0000,  0.0000,  0.0000)
  14 F      0.000000    3.432136    1.380850    ( 0.0000,  0.0000,  0.0000)
  15 F      0.000000   16.976716    1.380850    ( 0.0000,  0.0000,  0.0000)
  16 F      0.000000   13.636562    4.756090    ( 0.0000,  0.0000,  0.0000)
  17 F      0.000000    6.772290    4.796204    ( 0.0000,  0.0000,  0.0000)
  18 F      0.000000    3.436483    5.429327    ( 0.0000,  0.0000,  0.0000)
  19 F      0.000000   16.972369    5.429327    ( 0.0000,  0.0000,  0.0000)
  20 F      0.000000   13.640909    2.033221    ( 0.0000,  0.0000,  0.0000)
  21 F      0.000000    6.767943    2.051322    ( 0.0000,  0.0000,  0.0000)
  22 F      1.629612    1.395394    6.767331    ( 0.0000,  0.0000,  0.0000)
  23 F      1.626314   19.013458    6.767331    ( 0.0000,  0.0000,  0.0000)
  24 F      1.626314   11.504878    3.371226    ( 0.0000,  0.0000,  0.0000)
  25 F      1.626314    8.809032    3.371226    ( 0.0000,  0.0000,  0.0000)
  26 F      1.626314    2.003823    3.434678    ( 0.0000,  0.0000,  0.0000)
  27 F      1.626314   18.405029    3.434678    ( 0.0000,  0.0000,  0.0000)
  28 F      1.626314   12.208249    0.038573    ( 0.0000,  0.0000,  0.0000)
  29 F      1.626314    8.200603    0.038573    ( 0.0000,  0.0000,  0.0000)
  30 F      1.637083    4.748038    3.406464    ( 0.0000,  0.0000,  0.0000)
  31 F      1.626314   15.631956    3.406464    ( 0.0000,  0.0000,  0.0000)
  32 F      1.626314   14.981322    0.010358    ( 0.0000,  0.0000,  0.0000)
  33 F      1.626314    5.427530    0.010358    ( 0.0000,  0.0000,  0.0000)
  34 F      0.000000    0.000000    4.718827    ( 0.0000,  0.0000,  0.0000)
  35 F      0.000000   10.204426    1.322722    ( 0.0000,  0.0000,  0.0000)

Unit cell:
           periodic     x           y           z      points  spacing
  1. axis:    yes    3.252628    0.000000    0.000000    16     0.2033
  2. axis:    yes    0.000000   20.408852    0.000000   104     0.1962
  3. axis:    yes    0.000000    0.000000    6.792211    32     0.2123

  Lengths:   3.252628  20.408852   6.792211
  Angles:   90.000000  90.000000  90.000000

Effective grid spacing dv^(1/3) = 0.2038

                     log10-error:    total        iterations:
           time      wfs    density  energy       fermi  poisson
iter:   1  07:10:00  +1.75   +inf  -213.686878    3      19     
iter:   2  07:10:10  +0.20   +inf  -214.591086    3             
iter:   3  07:10:20  -0.37   +inf  -214.852513    2             
iter:   4  07:10:32  -0.64  -1.13  -212.531566    3      9      
iter:   5  07:10:45  -0.27  -1.17  -245.478579    35     13     
iter:   6  07:11:01  -0.29  -1.05  -290.388079    5      16     
iter:   7  07:11:19  -0.35  -1.06  -213.394750    4      15     
iter:   8  07:11:33  -0.58  -1.33  -209.278881    3      9      
iter:   9  07:11:44  -0.85  -1.39  -220.820781    2      13     
iter:  10  07:11:56  -0.84  -1.25  -221.408624    3      14     
iter:  11  07:12:09  -1.03  -1.23  -208.729066    3      13     
iter:  12  07:12:19  -1.47  -1.41  -208.843990    3      12     
iter:  13  07:12:31  -1.71  -1.40  -206.800675    3      11     
iter:  14  07:12:42  -2.00  -1.47  -206.544148    3      8      
iter:  15  07:12:52  -2.02  -1.49  -207.960084    3      10     
iter:  16  07:13:04  -1.63  -1.46  -211.073767    3      13     
iter:  17  07:13:19  -1.50  -1.39  -207.824857    3      12     
iter:  18  07:13:37  -1.49  -1.50  -207.223124    3      11     
iter:  19  07:13:48  -1.24  -1.57  -215.678621    4      13     
iter:  20  07:13:59  -0.93  -1.39  -209.560815    35     13     
iter:  21  07:14:10  -1.51  -1.48  -206.995497    2      11     
iter:  22  07:14:21  -2.07  -1.62  -206.759492    3      10     
iter:  23  07:14:32  -1.92  -1.67  -209.054651    3      11     
iter:  24  07:14:45  -1.67  -1.57  -208.703778    3      11     
iter:  25  07:14:59  -1.58  -1.59  -211.811000    3      12     
iter:  26  07:15:12  -1.39  -1.49  -206.963064    3      11     
iter:  27  07:15:25  -1.71  -1.79  -208.974107    3      11     
iter:  28  07:15:37  -1.82  -1.60  -206.748083    2      11     
iter:  29  07:15:50  -2.56  -1.80  -207.021380    3      8      
iter:  30  07:16:02  -2.70  -1.78  -206.590839    2      8      
iter:  31  07:16:14  -1.87  -1.86  -209.691786    3      11     
iter:  32  07:16:25  -1.69  -1.61  -207.052559    3      12     
iter:  33  07:16:35  -2.04  -1.84  -206.934986    3      9      
iter:  34  07:16:46  -1.68  -1.93  -208.694132    2      11     
iter:  35  07:16:57  -1.78  -1.71  -206.879829    3      11     
iter:  36  07:17:07  -2.08  -2.04  -206.980791    3      9      
iter:  37  07:17:19  -2.08  -1.93  -208.913127    3      12     
iter:  38  07:17:30  -1.87  -1.72  -206.566448    3      11     
iter:  39  07:17:40  -2.43  -2.08  -206.631677    2      7      
iter:  40  07:17:50  -2.62  -2.09  -206.606990    2      6      
iter:  41  07:18:01  -2.97  -2.12  -206.682075    2      8      
iter:  42  07:18:11  -2.71  -2.11  -206.874950    2      10     
iter:  43  07:18:22  -1.98  -2.03  -210.259620    3      12     
iter:  44  07:18:33  -1.89  -1.62  -206.664551    3      12     
iter:  45  07:18:44  -2.60  -2.14  -206.628739    2      6      
iter:  46  07:18:54  -2.95  -2.15  -206.561731    3      7      
iter:  47  07:19:05  -3.53  -2.22  -206.551325    2      6      
iter:  48  07:19:15  -3.29  -2.24  -206.665539    2      8      
iter:  49  07:19:27  -2.52  -2.18  -206.828244    3      10     
iter:  50  07:19:38  -2.39  -2.16  -206.577909    2      9      
iter:  51  07:19:52  -2.68  -2.30  -206.489654    2      7      
iter:  52  07:20:08  -2.71  -2.51  -206.819215    3      8      
iter:  53  07:20:19  -2.58  -2.18  -206.577739    2      9      
iter:  54  07:20:31  -3.31  -2.34  -206.459965    2      7      
iter:  55  07:20:49  -3.19  -2.56  -206.766132    2      9      
iter:  56  07:21:07  -3.09  -2.17  -206.460114    2      9      
iter:  57  07:21:24  -3.65  -2.58  -206.454803    2      5      
iter:  58  07:21:42  -3.08  -2.60  -206.569564    2      8      
iter:  59  07:21:54  -2.77  -2.37  -206.556210    2      8      
iter:  60  07:22:05  -3.23  -2.39  -206.473303    2      8      
iter:  61  07:22:16  -3.49  -2.53  -206.504706    2      6      
iter:  62  07:22:26  -3.58  -2.47  -206.482634    2      7      
iter:  63  07:22:36  -3.61  -2.56  -206.450811    2      6      
iter:  64  07:22:47  -3.56  -2.62  -206.443569    2      6      
iter:  65  07:22:58  -3.45  -2.66  -206.442625    2      5      
iter:  66  07:23:09  -3.35  -2.72  -206.470863    2      8      
iter:  67  07:23:20  -3.36  -2.63  -206.430642    2      6      
iter:  68  07:23:30  -3.87  -2.94  -206.439500    2      7      
iter:  69  07:23:42  -3.55  -2.77  -206.452288    2      6      
iter:  70  07:23:53  -3.72  -2.82  -206.429105    2      6      
iter:  71  07:24:03  -4.34  -2.97  -206.423557    2      5      
iter:  72  07:24:13  -4.96  -3.25  -206.424419    2      4      
iter:  73  07:24:24  -5.06  -3.27  -206.423478    2      3      
iter:  74  07:24:40  -5.10  -3.30  -206.424103    2      4      
iter:  75  07:24:54  -4.42  -3.23  -206.425751    2      5      
iter:  76  07:25:09  -4.52  -3.11  -206.423718    2      5      
iter:  77  07:25:24  -4.63  -3.48  -206.423504    2      5      
iter:  78  07:25:36  -4.62  -3.15  -206.423432    2      4      
iter:  79  07:25:46  -5.09  -3.57  -206.423415    2      4      
iter:  80  07:26:02  -5.09  -3.42  -206.423238    1      4      
iter:  81  07:26:18  -5.06  -3.30  -206.423610    2      4      
iter:  82  07:26:29  -5.34  -3.58  -206.424311    2      3      
iter:  83  07:26:46  -5.34  -3.55  -206.422275    2      4      
iter:  84  07:26:59  -5.48  -3.51  -206.423690    2      3      
iter:  85  07:27:10  -5.53  -3.59  -206.424587    2      4      
iter:  86  07:27:25  -4.76  -3.48  -206.426620    2      5      
iter:  87  07:27:39  -4.74  -3.06  -206.423223    2      4      
iter:  88  07:27:55  -5.47  -3.75  -206.423241    2      3      
iter:  89  07:28:08  -5.64  -3.70  -206.423559    2      3      
iter:  90  07:28:25  -5.66  -3.60  -206.423357    2      3      
iter:  91  07:28:40  -6.05  -3.66  -206.424102    2      3      
iter:  92  07:28:56  -5.68  -3.73  -206.422342    2      3      
iter:  93  07:29:11  -5.81  -3.71  -206.423217    2      4      
iter:  94  07:29:24  -5.33  -3.72  -206.422735    2      3      
iter:  95  07:29:35  -5.48  -3.64  -206.422933    2      3      
iter:  96  07:29:47  -5.78  -3.76  -206.423509    2      4      
iter:  97  07:29:59  -5.61  -3.70  -206.422081    2      3      
iter:  98  07:30:09  -5.78  -3.79  -206.423712    2      3      
iter:  99  07:30:20  -5.47  -3.77  -206.423938    2      4      
iter: 100  07:30:31  -5.44  -3.43  -206.422817    2      3      
iter: 101  07:30:41  -5.97  -3.96  -206.422925    2      3      
iter: 102  07:30:52  -5.82  -3.86  -206.423605    2      3      
iter: 103  07:31:02  -5.98  -3.65  -206.423084    2      3      
iter: 104  07:31:13  -6.06  -3.92  -206.422060    2      3      
iter: 105  07:31:24  -6.02  -4.02  -206.422891    2      3      
iter: 106  07:31:34  -6.65  -4.20  -206.422548    2      3      
iter: 107  07:31:45  -6.27  -4.13  -206.423017    2      3      
iter: 108  07:31:56  -6.30  -4.05  -206.422873    2      2      
iter: 109  07:32:07  -6.54  -4.11  -206.422905    1      2      
iter: 110  07:32:20  -6.48  -4.06  -206.422518    2      2      
iter: 111  07:32:34  -6.71  -4.21  -206.422758    2      2      
iter: 112  07:32:49  -7.36  -4.34  -206.422626    2      2      
iter: 113  07:33:03  -7.25  -4.37  -206.422796    2      2      
iter: 114  07:33:18  -7.65  -4.37  -206.422662    2      1      

Converged after 114 iterations.

Dipole moment: (-24.997933, -30.626060, -33.935399) |e|*Ang

Energy contributions relative to reference atoms: (reference = -479224.937077)

Kinetic:       +179.001057
Potential:     -182.251763
External:        +0.000000
XC:            -213.720804
Entropy (-ST):   -1.379003
Local:          +11.238349
--------------------------
Free energy:   -207.112163
Extrapolated:  -206.422662

Fermi level: 3.92774

 Band  Eigenvalues  Occupancy
    0    -20.75573    2.00000
    1    -20.74209    2.00000
    2    -20.60136    2.00000
    3    -20.56198    2.00000
    4    -20.44810    2.00000
    5    -20.42510    2.00000
    6    -20.40594    2.00000
    7    -20.33784    2.00000
    8    -20.28986    2.00000
    9    -20.27622    2.00000
   10    -20.26727    2.00000
   11    -20.25967    2.00000
   12    -20.24524    2.00000
   13    -20.22174    2.00000
   14    -20.20321    2.00000
   15    -20.17739    2.00000
   16    -20.17579    2.00000
   17    -20.15941    2.00000
   18    -20.15593    2.00000
   19    -20.12914    2.00000
   20    -18.94592    2.00000
   21    -18.93303    2.00000
   22    -14.41797    2.00000
   23    -14.40403    2.00000
   24     -4.25122    2.00000
   25     -4.14555    2.00000
   26     -3.97396    2.00000
   27     -3.88137    2.00000
   28     -3.74576    2.00000
   29     -3.56187    2.00000
   30     -3.49837    2.00000
   31     -3.43523    2.00000
   32     -3.31280    2.00000
   33     -3.14286    2.00000
   34     -2.69531    2.00000
   35     -2.67054    2.00000
   36     -2.57850    2.00000
   37     -2.52255    2.00000
   38     -2.44437    2.00000
   39     -2.40854    2.00000
   40     -2.39332    2.00000
   41     -2.37263    2.00000
   42     -2.36472    2.00000
   43     -2.35250    2.00000
   44     -2.34001    2.00000
   45     -2.33188    2.00000
   46     -2.31300    2.00000
   47     -2.30710    2.00000
   48     -2.29808    2.00000
   49     -2.28188    2.00000
   50     -2.24897    2.00000
   51     -2.23060    2.00000
   52     -2.21056    2.00000
   53     -2.20585    2.00000
   54     -2.18888    2.00000
   55     -2.17345    2.00000
   56     -2.14889    2.00000
   57     -2.13645    2.00000
   58     -2.10924    2.00000
   59     -2.09043    2.00000
   60     -2.00773    2.00000
   61     -1.94755    2.00000
   62     -1.92527    2.00000
   63     -1.77903    2.00000
   64     -1.70871    2.00000
   65     -1.68256    2.00000
   66     -1.66949    2.00000
   67     -1.59926    2.00000
   68     -1.56306    2.00000
   69     -1.56141    2.00000
   70     -1.52169    2.00000
   71     -1.42029    2.00000
   72     -1.37612    2.00000
   73     -1.31597    2.00000
   74     -1.29294    2.00000
   75     -1.27918    2.00000
   76     -1.21512    2.00000
   77     -1.16635    2.00000
   78     -1.15458    2.00000
   79     -1.13254    2.00000
   80     -1.11248    2.00000
   81     -1.11002    2.00000
   82     -1.08434    2.00000
   83     -1.04025    2.00000
   84     -0.94635    2.00000
   85     -0.89839    2.00000
   86     -0.72850    2.00000
   87     -0.67332    2.00000
   88     -0.03245    2.00000
   89     -0.02839    2.00000
   90     -0.02776    2.00000
   91      0.01331    2.00000
   92      0.16506    2.00000
   93      0.18674    2.00000
   94      0.74429    2.00000
   95      0.75253    2.00000
   96      2.90488    1.99993
   97      2.94626    1.99989
   98      2.97184    1.99986
   99      2.98777    1.99983
  100      3.00223    1.99981
  101      3.04640    1.99970
  102      3.05800    1.99967
  103      3.06396    1.99965
  104      3.07661    1.99960
  105      3.08695    1.99955
  106      3.13448    1.99928
  107      3.14853    1.99917
  108      3.22447    1.99824
  109      3.24233    1.99789
  110      3.24434    1.99785
  111      3.25910    1.99751
  112      3.30048    1.99623
  113      3.31203    1.99577
  114      3.32060    1.99539
  115      3.32082    1.99538
  116      3.34348    1.99421
  117      3.35052    1.99379
  118      3.37969    1.99170
  119      3.38025    1.99165
  120      3.42055    1.98754
  121      3.42334    1.98719
  122      3.43394    1.98576
  123      3.55550    1.95279
  124      3.58063    1.93971
  125      3.65400    1.87839
  126      3.72289    1.77158
  127      3.74184    1.73035
  128      3.84314    1.39945
  129      3.85977    1.32734
  130      3.88546    1.20828
  131      3.94021    0.93771
  132      4.00758    0.62073
  133      4.04850    0.46025
  134      4.06510    0.40408
  135      4.17388    0.15722
  136      4.24536    0.08014
  137      4.30387    0.04545
  138      4.32687    0.03628
  139      4.34803    0.02946
  140      4.34987    0.02893
  141      4.35553    0.02736
  142      4.37851    0.02181
  143      4.45354    0.01036
  144      4.48368    0.00767
  145      4.52116    0.00528
  146      4.52717    0.00497
  147      4.53383    0.00465
  148      4.55792    0.00366
  149      4.57265    0.00316
  150      4.70443    0.00085
  151      5.06025    0.00002
  152      5.25775    0.00000
  153      5.37694    0.00000
  154      5.43302    0.00000
  155      5.43688    0.00000
  156      6.07373    0.00000
  157      6.55987    0.00000
  158      6.92592    0.00000
  159      8.20807    0.00000
  160      8.47451    0.00000
  161      9.80565    0.00000
  162     10.02687    0.00000
  163     10.13382    0.00000
  164     10.42002    0.00000
  165     10.44155    0.00000
  166     10.46752    0.00000
  167     10.52321    0.00000
  168     10.80139    0.00000
  169     10.84653    0.00000
  170     10.99953    0.00000
  171     11.12269    0.00000
  172     11.45075    0.00000
  173     11.64883    0.00000
  174     11.79006    0.00000
  175     12.15868    0.00000
  176     12.23233    0.00000
  177     12.99048    0.00000
  178     13.19488    0.00000
  179     13.53003    0.00000
  180     14.45429    0.00000
  181     14.69851    0.00000
  182     15.05487    0.00000
  183     15.16335    0.00000
  184     15.27042    0.00000
  185     15.65127    0.00000
  186     15.75289    0.00000
  187     15.94958    0.00000
  188     16.29585    0.00000
  189     16.33234    0.00000
  190     16.53771    0.00000
  191     16.54741    0.00000
  192     16.57303    0.00000
  193     16.91077    0.00000
  194     16.97571    0.00000
  195     17.00040    0.00000
  196     17.07697    0.00000
  197     17.10243    0.00000
  198     17.16926    0.00000
  199     17.21521    0.00000
  200     17.45766    0.00000
  201     17.48295    0.00000
  202     17.57495    0.00000
  203     17.80665    0.00000

Timing:                              incl.     excl.
-----------------------------------------------------------
Hamiltonian:                         2.804     0.000   0.0% |
 Atomic:                             1.597     0.003   0.0% |
  XC Correction:                     1.593     1.593   0.1% |
 Calculate atomic Hamiltonians:      0.014     0.014   0.0% |
 Communicate:                        0.000     0.000   0.0% |
 Hartree integrate/restrict:         0.006     0.006   0.0% |
 Initialize Hamiltonian:             0.000     0.000   0.0% |
 Poisson:                            0.859     0.859   0.1% |
 XC 3D grid:                         0.324     0.324   0.0% |
 vbar:                               0.003     0.003   0.0% |
LCAO initialization:                10.780     0.227   0.0% |
 LCAO eigensolver:                   1.434     0.000   0.0% |
  Calculate projections:             0.008     0.008   0.0% |
  DenseAtomicCorrection:             0.008     0.008   0.0% |
  Distribute overlap matrix:         0.000     0.000   0.0% |
  Orbital Layouts:                   0.025     0.025   0.0% |
  Potential matrix:                  1.393     1.393   0.1% |
 LCAO to grid:                       8.173     8.173   0.6% |
 Set positions (LCAO WFS):           0.946     0.000   0.0% |
  Basic WFS set positions:           0.001     0.001   0.0% |
  Basis functions set positions:     0.000     0.000   0.0% |
  TCI: Calculate S, T, P:            0.944     0.944   0.1% |
SCF-cycle:                        1407.844     0.117   0.0% |
 Davidson:                        1107.550   248.959  17.5% |------|
  Apply hamiltonian:                26.296    26.296   1.8% ||
  Subspace diag:                   293.720     0.022   0.0% |
   calc_h_matrix:                  117.242    90.127   6.3% |--|
    Apply hamiltonian:              27.114    27.114   1.9% ||
   diagonalize:                      1.509     1.509   0.1% |
   rotate_psi:                     174.949   174.949  12.3% |----|
  calc. matrices:                  355.419   329.544  23.2% |--------|
   Apply hamiltonian:               25.875    25.875   1.8% ||
  diagonalize:                       5.161     5.161   0.4% |
  rotate_psi:                      177.994   177.994  12.5% |----|
 Density:                            5.965     0.003   0.0% |
  Atomic density matrices:           0.466     0.466   0.0% |
  Mix:                               3.154     3.154   0.2% |
  Multipole moments:                 0.096     0.096   0.0% |
  Pseudo density:                    2.245     2.242   0.2% |
   Symmetrize density:               0.003     0.003   0.0% |
 Hamiltonian:                      292.451     0.015   0.0% |
  Atomic:                          205.862     0.431   0.0% |
   XC Correction:                  205.431   205.431  14.4% |-----|
  Calculate atomic Hamiltonians:     1.829     1.829   0.1% |
  Communicate:                       0.001     0.001   0.0% |
  Hartree integrate/restrict:        0.797     0.797   0.1% |
  Poisson:                          42.909    42.909   3.0% ||
  XC 3D grid:                       40.651    40.651   2.9% ||
  vbar:                              0.387     0.387   0.0% |
 Orthonormalize:                     1.761     0.000   0.0% |
  calc_s_matrix:                     0.444     0.444   0.0% |
  inverse-cholesky:                  0.002     0.002   0.0% |
  projections:                       0.612     0.612   0.0% |
  rotate_psi_s:                      0.703     0.703   0.0% |
Set symmetry:                        0.001     0.001   0.0% |
Other:                               1.002     1.002   0.1% |
-----------------------------------------------------------
Total:                                      1422.430 100.0%

Memory usage: 1.08 GiB
Date: Sat Mar 30 07:33:18 2019
