
  ___ ___ ___ _ _ _  
 |   |   |_  | | | | 
 | | | | | . | | | | 
 |__ |  _|___|_____|  1.4.0
 |___|_|             

User:   murakami@tssm1.eng.shizuoka.ac.jp
Date:   Sat Mar 30 02:14:54 2019
Arch:   x86_64
Pid:    31289
Python: 3.6.5
gpaw:   /home/murakami/.local/lib/python3.6/site-packages/gpaw
_gpaw:  /home/murakami/.local/lib/python3.6/site-packages/
        _gpaw.cpython-36m-x86_64-linux-gnu.so
ase:    /home/murakami/.local/lib/python3.6/site-packages/ase (version 3.16.2)
numpy:  /home/murakami/.local/lib/python3.6/site-packages/numpy (version 1.15.2)
scipy:  /home/murakami/.local/lib/python3.6/site-packages/scipy (version 1.1.0)
units:  Angstrom and eV
cores:  1

Input parameters:
  kpts: {size: (1, 1, 1)}
  maxiter: 300
  xc: PBE

System changes: positions, numbers, cell, pbc, initial_charges, initial_magmoms 

Initialize ...

Fe-setup:
  name: Iron
  id: 37abbd8d6c3c35915a9b583b742da910
  Z: 26
  valence: 8
  core: 18
  charge: 0.0
  file: /home/murakami/Public/gpaw-setups-0.9.20000/Fe.PBE.gz
  cutoffs: 1.06(comp), 2.06(filt), 2.67(core), lmax=2
  valence states:
                energy  radius
    4s(2.00)    -5.291   1.164
    4p(0.00)    -1.326   1.058
    3d(6.00)    -7.505   1.058
    *s          21.920   1.164
    *p          25.885   1.058
    *d          19.706   1.058

  Using partial waves for Fe as LCAO basis

O-setup:
  name: Oxygen
  id: 32ecd46bf208036f09c70b0ec9a88b78
  Z: 8
  valence: 6
  core: 2
  charge: 0.0
  file: /home/murakami/Public/gpaw-setups-0.9.20000/O.PBE.gz
  cutoffs: 0.67(comp), 1.17(filt), 0.83(core), lmax=2
  valence states:
                energy  radius
    2s(2.00)   -23.961   0.688
    2p(4.00)    -9.029   0.598
    *s           3.251   0.688
    *p          18.182   0.598
    *d           0.000   0.619

  Using partial waves for O as LCAO basis

F-setup:
  name: Fluorine
  id: 9cd46ba2a61e170ad72278be75b55cc0
  Z: 9
  valence: 7
  core: 2
  charge: 0.0
  file: /home/murakami/Public/gpaw-setups-0.9.20000/F.PBE.gz
  cutoffs: 0.64(comp), 1.14(filt), 0.74(core), lmax=2
  valence states:
                energy  radius
    2s(2.00)   -29.898   0.635
    2p(5.00)   -11.110   0.635
    *s          -2.687   0.635
    *p          16.102   0.635
    *d           0.000   0.635

  Using partial waves for F as LCAO basis

Reference energy: -479224.937077

Spin-paired calculation

Occupation numbers:
  Fermi-Dirac: width=0.1000 eV

Convergence criteria:
  Maximum total energy change: 0.0005 eV / electron
  Maximum integral of absolute density change: 0.0001 electrons
  Maximum integral of absolute eigenstate change: 4e-08 eV^2
  Maximum number of iterations: 300

Symmetries present (total): 1

  ( 1  0  0)
  ( 0  1  0)
  ( 0  0  1)

1 k-point (Gamma)
1 k-point in the irreducible part of the Brillouin zone
       k-points in crystal coordinates                weights
   0:     0.00000000    0.00000000    0.00000000          1/1

Wave functions: Uniform real-space grid
  Kinetic energy operator: 8*3+1=25 point O(h^6) finite-difference Laplacian
  ScaLapack parameters: grid=1x1, blocksize=None 

Eigensolver
   Davidson(niter=1, smin=None, normalize=True) 

Densities:
  Coarse grid: 16*104*32 grid
  Fine grid: 32*208*64 grid
  Total Charge: 0.000000 

Density mixing:
  Method: separate
  Backend: pulay
  Linear mixing parameter: 0.05
  Mixing with 5 old densities
  Damping of long wave oscillations: 50 

Hamiltonian:
  XC and Coulomb potentials evaluated on a 32*208*64 grid
  Using the PBE Exchange-Correlation functional
  Interpolation: tri-quintic (5. degree polynomial)
  Poisson solver: Jacobi solver with 5 multi-grid levels
    Coarsest grid: 2 x 13 x 4 points
    Stencil: 8*3+1=25 point O(h^6) finite-difference Laplacian
    Max iterations: 1000
    Tolerance: 2.000000e-10 

Memory estimate:
  Process memory now: 1103.97 MiB
  Calculator: 269.53 MiB
    Density: 69.97 MiB
      Arrays: 10.56 MiB
      Localized functions: 55.35 MiB
      Mixer: 4.06 MiB
    Hamiltonian: 19.00 MiB
      Arrays: 6.91 MiB
      XC: 0.00 MiB
      Poisson: 7.89 MiB
      vbar: 4.20 MiB
    Wavefunctions: 180.56 MiB
      Arrays psit_nG: 82.88 MiB
      Eigensolver: 88.09 MiB
      Projections: 0.82 MiB
      Projectors: 8.78 MiB

Total number of cores used: 1

Number of atoms: 36
Number of atomic orbitals: 204
Number of bands in calculation: 204
Bands to converge: occupied states only
Number of valence electrons: 262

... initialized

Initializing position-dependent things.

Density initialized from atomic densities
Creating initial wave functions:
  204 bands from LCAO basis set

                                
                                
                                
                                
                       F        
                                
                                
                  F             
                      F         
               F Fee            
             O       F          
                  FFe           
                  F             
           F FeF      Fe        
            F    F  F           
         F     Fe               
             FF    F            
         FeF                    
       F    F   F               
           Fe                   
         F     F                
       O     Fe                 
                                
       Fe                       
                                
                                
                                
                                

Positions:
   0 Fe     0.000000    3.425973    3.400415    ( 0.0000,  0.0000,  0.0000)
   1 Fe     0.000000   17.123411    3.379872    ( 0.0000,  0.0000,  0.0000)
   2 Fe     0.002882   13.700665   -0.011100    ( 0.0000,  0.0000,  0.0000)
   3 Fe     0.000000    6.848719   -0.000824    ( 0.0000,  0.0000,  0.0000)
   4 Fe     1.626314    3.484867   -0.005199    ( 0.0000,  0.0000,  0.0000)
   5 Fe     1.626314   17.137755   -0.025676    ( 0.0000,  0.0000,  0.0000)
   6 Fe     1.626314   13.686321    3.375606    ( 0.0000,  0.0000,  0.0000)
   7 Fe     1.626314    6.863063    3.385839    ( 0.0000,  0.0000,  0.0000)
   8 Fe     0.000000    0.000000    0.082607    ( 0.0000,  0.0000,  0.0000)
   9 Fe     0.000000   10.274692    3.463302    ( 0.0000,  0.0000,  0.0000)
  10 Fe     1.626314    0.000000    3.208640    ( 0.0000,  0.0000,  0.0000)
  11 Fe     1.626314   10.274692    6.589336    ( 0.0000,  0.0000,  0.0000)
  12 O      0.000000    0.000000    2.135213    ( 0.0000,  0.0000,  0.0000)
  13 O      0.000000   10.274692    5.515909    ( 0.0000,  0.0000,  0.0000)
  14 F      0.022066    3.455769    1.375667    ( 0.0000,  0.0000,  0.0000)
  15 F      0.000000   17.093615    1.355213    ( 0.0000,  0.0000,  0.0000)
  16 F      0.000000   13.730461    4.756362    ( 0.0000,  0.0000,  0.0000)
  17 F      0.000000    6.818923    4.766728    ( 0.0000,  0.0000,  0.0000)
  18 F      0.008480    3.460146    5.423227    ( 0.0000,  0.0000,  0.0000)
  19 F      0.000000   17.089238    5.403696    ( 0.0000,  0.0000,  0.0000)
  20 F      0.000000   13.734838    2.012622    ( 0.0000,  0.0000,  0.0000)
  21 F      0.000000    6.814546    2.023001    ( 0.0000,  0.0000,  0.0000)
  22 F      1.626314    1.405002    6.765224    ( 0.0000,  0.0000,  0.0000)
  23 F      1.626314   19.144382    6.738618    ( 0.0000,  0.0000,  0.0000)
  24 F      1.607140   11.679694    3.353708    ( 0.0000,  0.0000,  0.0000)
  25 F      1.626314    8.869690    3.357923    ( 0.0000,  0.0000,  0.0000)
  26 F      1.656066    2.017621    3.417518    ( 0.0000,  0.0000,  0.0000)
  27 F      1.626314   18.531763    3.406884    ( 0.0000,  0.0000,  0.0000)
  28 F      1.617428   12.292313    0.020137    ( 0.0000,  0.0000,  0.0000)
  29 F      1.626314    8.257071    0.040371    ( 0.0000,  0.0000,  0.0000)
  30 F      1.626314    4.809789    3.399250    ( 0.0000,  0.0000,  0.0000)
  31 F      1.626314   15.739595    3.382857    ( 0.0000,  0.0000,  0.0000)
  32 F      1.626314   15.084481   -0.012266    ( 0.0000,  0.0000,  0.0000)
  33 F      1.626314    5.464903    0.002162    ( 0.0000,  0.0000,  0.0000)
  34 F     -0.014422    0.000000    4.682482    ( 0.0000,  0.0000,  0.0000)
  35 F      0.000000   10.274692    1.307312    ( 0.0000,  0.0000,  0.0000)

Unit cell:
           periodic     x           y           z      points  spacing
  1. axis:    yes    3.252628    0.000000    0.000000    16     0.2033
  2. axis:    yes    0.000000   20.549384   -0.030820   104     0.1976
  3. axis:    yes    0.000000    0.000000    6.792211    32     0.2123

  Lengths:   3.252628  20.549407   6.792211
  Angles:   90.085932  90.000000  90.000000

Effective grid spacing dv^(1/3) = 0.2043

                     log10-error:    total        iterations:
           time      wfs    density  energy       fermi  poisson
iter:   1  02:15:19  +1.74   +inf  -213.516103    3      19     
iter:   2  02:15:28  +0.20   +inf  -214.414868    3             
iter:   3  02:15:37  -0.38   +inf  -214.674208    2             
iter:   4  02:15:48  -0.64  -1.12  -212.437105    3      9      
iter:   5  02:15:59  -0.27  -1.16  -232.184381    36     12     
iter:   6  02:16:11  -0.29  -1.11  -270.653730    3      15     
iter:   7  02:16:25  -0.25  -1.10  -222.278364    4      15     
iter:   8  02:16:40  -0.47  -1.26  -220.256353    3      14     
iter:   9  02:16:52  -0.49  -1.20  -255.533489    32     15     
iter:  10  02:17:03  -0.59  -1.08  -216.311770    35     15     
iter:  11  02:17:14  -0.71  -1.34  -207.568075    3      11     
iter:  12  02:17:25  -1.32  -1.44  -206.957752    3      9      
iter:  13  02:17:37  -1.62  -1.46  -210.357792    3      11     
iter:  14  02:17:48  -1.50  -1.37  -213.319236    3      13     
iter:  15  02:18:00  -1.26  -1.31  -225.668670    4      14     
iter:  16  02:18:11  -1.22  -1.19  -207.232230    4      13     
iter:  17  02:18:22  -1.63  -1.47  -206.589759    3      10     
iter:  18  02:18:33  -1.94  -1.51  -206.816364    3      10     
iter:  19  02:18:45  -1.96  -1.50  -208.690855    3      10     
iter:  20  02:18:56  -1.67  -1.44  -209.391252    3      12     
iter:  21  02:19:07  -1.36  -1.43  -231.794009    4      14     
iter:  22  02:19:19  -1.14  -1.19  -207.874507    3      14     
iter:  23  02:19:30  -1.62  -1.48  -206.396190    3      10     
iter:  24  02:19:41  -2.09  -1.56  -206.400260    3      9      
iter:  25  02:19:53  -2.27  -1.56  -208.189546    3      11     
iter:  26  02:20:04  -1.73  -1.49  -209.337690    3      12     
iter:  27  02:20:15  -1.51  -1.46  -215.335160    3      13     
iter:  28  02:20:27  -1.48  -1.31  -206.995316    3      13     
iter:  29  02:20:38  -1.86  -1.56  -206.426579    3      9      
iter:  30  02:20:49  -2.25  -1.61  -206.617372    3      10     
iter:  31  02:21:00  -2.19  -1.59  -207.124442    3      7      
iter:  32  02:21:11  -1.74  -1.58  -213.220320    4      12     
iter:  33  02:21:22  -1.39  -1.37  -212.625235    3      13     
iter:  34  02:21:33  -1.50  -1.39  -207.434135    3      12     
iter:  35  02:21:44  -2.04  -1.58  -206.412032    3      9      
iter:  36  02:21:54  -2.42  -1.65  -206.391626    3      7      
iter:  37  02:22:05  -2.88  -1.66  -206.793256    3      9      
iter:  38  02:22:16  -1.86  -1.64  -214.100326    4      13     
iter:  39  02:22:27  -1.35  -1.39  -213.211830    3      13     
iter:  40  02:22:38  -1.54  -1.38  -206.693008    3      12     
iter:  41  02:22:49  -2.04  -1.67  -206.713858    3      9      
iter:  42  02:23:00  -2.21  -1.68  -207.187509    3      10     
iter:  43  02:23:11  -2.34  -1.63  -206.493867    3      9      
iter:  44  02:23:22  -1.77  -1.70  -218.742526    4      13     
iter:  45  02:23:33  -1.24  -1.34  -217.920754    3      14     
iter:  46  02:23:44  -1.40  -1.32  -206.965177    3      13     
iter:  47  02:23:55  -2.01  -1.67  -206.454973    3      9      
iter:  48  02:24:06  -2.33  -1.74  -206.485327    3      7      
iter:  49  02:24:16  -2.37  -1.76  -206.660093    2      8      
iter:  50  02:24:28  -2.05  -1.72  -209.042559    3      11     
iter:  51  02:24:40  -1.52  -1.59  -219.150587    3      13     
iter:  52  02:24:51  -1.36  -1.31  -207.829299    3      13     
iter:  53  02:25:02  -1.84  -1.66  -206.844265    3      11     
iter:  54  02:25:13  -2.18  -1.74  -206.582289    3      9      
iter:  55  02:25:24  -2.48  -1.80  -206.408011    2      7      
iter:  56  02:25:35  -2.52  -1.82  -207.515883    3      9      
iter:  57  02:25:46  -1.77  -1.71  -215.461353    3      13     
iter:  58  02:25:57  -1.49  -1.36  -206.642495    3      13     
iter:  59  02:26:08  -2.14  -1.81  -206.857966    3      8      
iter:  60  02:26:19  -2.26  -1.80  -207.022243    3      11     
iter:  61  02:26:31  -2.22  -1.80  -206.978699    3      11     
iter:  62  02:26:42  -2.20  -1.80  -206.516956    3      9      
iter:  63  02:26:53  -2.18  -1.90  -206.937546    3      10     
iter:  64  02:27:04  -1.91  -1.93  -206.648601    3      9      
iter:  65  02:27:16  -2.11  -1.89  -206.957477    3      10     
iter:  66  02:27:26  -2.22  -1.86  -206.432339    3      10     
iter:  67  02:27:37  -2.59  -2.01  -206.738930    3      10     
iter:  68  02:27:48  -2.44  -1.93  -206.501843    3      10     
iter:  69  02:27:59  -2.94  -1.98  -206.404652    2      7      
iter:  70  02:28:10  -2.85  -2.04  -206.403454    3      7      
iter:  71  02:28:21  -2.23  -2.04  -209.264597    3      11     
iter:  72  02:28:32  -1.79  -1.63  -207.238336    3      12     
iter:  73  02:28:42  -2.15  -1.87  -206.721142    2      8      
iter:  74  02:28:53  -2.32  -1.98  -206.695257    3      8      
iter:  75  02:29:04  -2.54  -2.01  -206.572197    2      10     
iter:  76  02:29:15  -3.19  -2.02  -206.470572    2      6      
iter:  77  02:29:26  -2.22  -2.06  -208.740639    3      11     
iter:  78  02:29:37  -1.84  -1.70  -206.392332    3      11     
iter:  79  02:29:47  -2.54  -2.12  -206.510628    2      9      
iter:  80  02:29:58  -2.81  -2.06  -206.361593    2      7      
iter:  81  02:30:10  -3.09  -2.15  -206.411662    2      7      
iter:  82  02:30:21  -3.14  -2.12  -206.345207    2      8      
iter:  83  02:30:32  -2.09  -2.18  -209.288582    3      11     
iter:  84  02:30:43  -1.89  -1.66  -206.328530    3      11     
iter:  85  02:30:54  -2.77  -2.19  -206.340337    2      6      
iter:  86  02:31:07  -2.94  -2.20  -206.333784    2      6      
iter:  87  02:31:19  -3.14  -2.20  -206.299984    2      7      
iter:  88  02:31:32  -3.12  -2.25  -206.414450    3      8      
iter:  89  02:31:45  -2.29  -2.16  -207.594330    3      11     
iter:  90  02:31:58  -2.05  -1.86  -206.300080    3      10     
iter:  91  02:32:11  -2.75  -2.24  -206.351764    2      8      
iter:  92  02:32:24  -3.00  -2.23  -206.253288    2      8      
iter:  93  02:32:36  -3.77  -2.33  -206.239965    2      4      
iter:  94  02:32:47  -4.24  -2.34  -206.243589    2      5      
iter:  95  02:32:58  -2.42  -2.36  -207.729677    3      11     
iter:  96  02:33:09  -2.25  -1.83  -206.383607    3      11     
iter:  97  02:33:20  -2.83  -2.23  -206.237521    2      8      
iter:  98  02:33:30  -3.05  -2.49  -206.204122    2      7      
iter:  99  02:33:41  -2.79  -2.66  -206.694832    3      10     
iter: 100  02:33:52  -2.73  -2.10  -206.270390    2      10     
iter: 101  02:34:04  -3.15  -2.51  -206.213254    2      6      
iter: 102  02:34:14  -3.58  -2.71  -206.215831    2      5      
iter: 103  02:34:25  -3.94  -2.67  -206.195137    2      5      
iter: 104  02:34:35  -4.47  -2.82  -206.192580    2      5      
iter: 105  02:34:46  -4.07  -2.86  -206.212750    2      6      
iter: 106  02:34:57  -3.69  -2.72  -206.198781    2      6      
iter: 107  02:35:07  -3.65  -2.71  -206.205425    2      6      
iter: 108  02:35:18  -3.65  -2.80  -206.234231    2      6      
iter: 109  02:35:29  -3.48  -2.64  -206.189836    2      7      
iter: 110  02:35:40  -4.05  -2.88  -206.193378    2      5      
iter: 111  02:35:51  -4.45  -2.92  -206.188326    2      5      
iter: 112  02:36:01  -4.27  -2.97  -206.202698    2      5      
iter: 113  02:36:12  -4.00  -2.78  -206.197449    2      6      
iter: 114  02:36:23  -3.59  -2.77  -206.254941    2      7      
iter: 115  02:36:34  -3.61  -2.55  -206.192277    2      7      
iter: 116  02:36:45  -4.20  -2.99  -206.186313    2      4      
iter: 117  02:36:55  -4.83  -3.06  -206.187171    2      3      
iter: 118  02:37:06  -5.27  -3.10  -206.185668    2      4      
iter: 119  02:37:17  -4.64  -3.12  -206.192729    2      5      
iter: 120  02:37:28  -4.50  -2.95  -206.192145    2      5      
iter: 121  02:37:39  -4.15  -3.04  -206.212290    2      6      
iter: 122  02:37:50  -3.84  -2.69  -206.197960    2      6      
iter: 123  02:38:01  -3.89  -3.02  -206.189143    2      6      
iter: 124  02:38:12  -4.22  -2.95  -206.190635    2      5      
iter: 125  02:38:23  -4.54  -3.15  -206.187873    2      5      
iter: 126  02:38:33  -4.31  -3.32  -206.191058    2      5      
iter: 127  02:38:44  -4.24  -2.95  -206.193621    2      6      
iter: 128  02:38:54  -4.30  -2.90  -206.189155    2      5      
iter: 129  02:39:05  -4.49  -3.23  -206.189139    2      4      
iter: 130  02:39:15  -5.02  -3.34  -206.185483    2      3      
iter: 131  02:39:26  -5.58  -3.55  -206.185538    2      3      
iter: 132  02:39:37  -5.42  -3.54  -206.186010    2      3      
iter: 133  02:39:47  -5.83  -3.56  -206.185486    2      3      
iter: 134  02:39:58  -5.90  -3.61  -206.185305    2      3      
iter: 135  02:40:08  -5.46  -3.46  -206.186770    2      4      
iter: 136  02:40:19  -5.34  -3.45  -206.185243    1      4      
iter: 137  02:40:29  -5.48  -3.62  -206.187598    2      4      
iter: 138  02:40:40  -5.18  -3.52  -206.184506    2      3      
iter: 139  02:40:50  -5.06  -3.59  -206.185764    2      4      
iter: 140  02:41:01  -5.18  -3.46  -206.185910    2      4      
iter: 141  02:41:12  -4.76  -3.51  -206.193672    2      5      
iter: 142  02:41:23  -4.71  -3.04  -206.185763    2      5      
iter: 143  02:41:33  -5.49  -3.76  -206.185048    2      3      
iter: 144  02:41:44  -5.67  -3.70  -206.185416    2      3      
iter: 145  02:41:54  -5.83  -3.81  -206.185711    2      3      
iter: 146  02:42:06  -5.89  -3.85  -206.186354    2      4      
iter: 147  02:42:19  -5.34  -3.85  -206.184682    2      4      
iter: 148  02:42:32  -5.28  -3.40  -206.185685    2      4      
iter: 149  02:42:44  -5.79  -3.72  -206.185023    2      3      
iter: 150  02:42:57  -6.05  -3.84  -206.185716    2      3      
iter: 151  02:43:09  -6.27  -3.89  -206.185458    2      2      
iter: 152  02:43:22  -6.80  -4.06  -206.185375    2      3      
iter: 153  02:43:34  -6.32  -4.17  -206.184814    2      3      
iter: 154  02:43:47  -6.08  -4.06  -206.185825    2      3      
iter: 155  02:43:58  -6.23  -3.82  -206.185721    1      2      
iter: 156  02:44:09  -6.61  -4.12  -206.185491    2      2      
iter: 157  02:44:20  -6.75  -4.10  -206.185526    1      2      
iter: 158  02:44:30  -6.89  -4.24  -206.185221    2      2      
iter: 159  02:44:41  -6.64  -4.21  -206.185213    1      2      
iter: 160  02:44:51  -6.97  -4.22  -206.185479    2      2      
iter: 161  02:45:02  -7.63  -4.28  -206.185344    2      1      

Converged after 161 iterations.

Dipole moment: (-25.513736, -30.987492, -34.561082) |e|*Ang

Energy contributions relative to reference atoms: (reference = -479224.937077)

Kinetic:       +175.438263
Potential:     -179.654153
External:        +0.000000
XC:            -212.582445
Entropy (-ST):   -1.407659
Local:          +11.316820
--------------------------
Free energy:   -206.889173
Extrapolated:  -206.185344

Fermi level: 3.83842

 Band  Eigenvalues  Occupancy
    0    -20.84430    2.00000
    1    -20.77843    2.00000
    2    -20.63707    2.00000
    3    -20.62008    2.00000
    4    -20.55019    2.00000
    5    -20.40737    2.00000
    6    -20.36536    2.00000
    7    -20.35683    2.00000
    8    -20.34398    2.00000
    9    -20.33818    2.00000
   10    -20.32728    2.00000
   11    -20.31160    2.00000
   12    -20.30038    2.00000
   13    -20.24250    2.00000
   14    -20.21283    2.00000
   15    -20.18493    2.00000
   16    -20.18109    2.00000
   17    -20.16315    2.00000
   18    -20.13793    2.00000
   19    -20.02123    2.00000
   20    -19.04190    2.00000
   21    -19.01428    2.00000
   22    -14.50354    2.00000
   23    -14.47613    2.00000
   24     -4.29812    2.00000
   25     -4.20710    2.00000
   26     -4.01868    2.00000
   27     -3.95323    2.00000
   28     -3.74484    2.00000
   29     -3.54363    2.00000
   30     -3.49829    2.00000
   31     -3.40185    2.00000
   32     -3.33888    2.00000
   33     -3.17944    2.00000
   34     -2.77217    2.00000
   35     -2.71130    2.00000
   36     -2.64799    2.00000
   37     -2.58243    2.00000
   38     -2.48099    2.00000
   39     -2.45023    2.00000
   40     -2.43812    2.00000
   41     -2.42440    2.00000
   42     -2.41171    2.00000
   43     -2.40699    2.00000
   44     -2.39317    2.00000
   45     -2.39126    2.00000
   46     -2.32750    2.00000
   47     -2.32233    2.00000
   48     -2.31139    2.00000
   49     -2.28692    2.00000
   50     -2.26399    2.00000
   51     -2.25276    2.00000
   52     -2.22323    2.00000
   53     -2.20444    2.00000
   54     -2.19441    2.00000
   55     -2.18779    2.00000
   56     -2.18417    2.00000
   57     -2.15057    2.00000
   58     -2.14403    2.00000
   59     -2.10147    2.00000
   60     -2.01666    2.00000
   61     -1.95459    2.00000
   62     -1.92634    2.00000
   63     -1.79478    2.00000
   64     -1.71355    2.00000
   65     -1.68507    2.00000
   66     -1.63085    2.00000
   67     -1.62151    2.00000
   68     -1.59264    2.00000
   69     -1.56757    2.00000
   70     -1.50132    2.00000
   71     -1.46810    2.00000
   72     -1.37332    2.00000
   73     -1.35974    2.00000
   74     -1.32410    2.00000
   75     -1.30358    2.00000
   76     -1.27748    2.00000
   77     -1.25015    2.00000
   78     -1.21396    2.00000
   79     -1.21075    2.00000
   80     -1.18178    2.00000
   81     -1.13804    2.00000
   82     -1.11728    2.00000
   83     -1.06607    2.00000
   84     -0.97600    2.00000
   85     -0.93762    2.00000
   86     -0.78915    2.00000
   87     -0.72328    2.00000
   88     -0.13923    2.00000
   89     -0.11516    2.00000
   90     -0.10683    2.00000
   91     -0.06472    2.00000
   92      0.09190    2.00000
   93      0.17007    2.00000
   94      0.65646    2.00000
   95      0.69199    2.00000
   96      2.81880    1.99993
   97      2.85622    1.99989
   98      2.88414    1.99986
   99      2.90462    1.99982
  100      2.91157    1.99981
  101      2.96098    1.99969
  102      2.96652    1.99967
  103      2.97602    1.99964
  104      2.98915    1.99959
  105      2.99701    1.99956
  106      3.05464    1.99921
  107      3.06186    1.99915
  108      3.16144    1.99771
  109      3.16196    1.99769
  110      3.16705    1.99757
  111      3.16899    1.99753
  112      3.21322    1.99615
  113      3.22722    1.99558
  114      3.23557    1.99519
  115      3.24482    1.99473
  116      3.25361    1.99425
  117      3.29822    1.99102
  118      3.30202    1.99068
  119      3.30703    1.99020
  120      3.33250    1.98738
  121      3.35535    1.98416
  122      3.36272    1.98296
  123      3.46802    1.95193
  124      3.49379    1.93824
  125      3.56638    1.87643
  126      3.63638    1.76583
  127      3.65363    1.72775
  128      3.75965    1.37467
  129      3.76612    1.34649
  130      3.79867    1.19616
  131      3.85080    0.93814
  132      3.91591    0.63081
  133      3.96029    0.45630
  134      3.97690    0.40045
  135      4.08610    0.15499
  136      4.14968    0.08517
  137      4.20728    0.04879
  138      4.22948    0.03927
  139      4.23293    0.03796
  140      4.24400    0.03405
  141      4.24934    0.03231
  142      4.25944    0.02925
  143      4.34707    0.01228
  144      4.35308    0.01157
  145      4.44433    0.00466
  146      4.44638    0.00457
  147      4.44651    0.00456
  148      4.44818    0.00449
  149      4.48172    0.00321
  150      4.60023    0.00098
  151      4.96734    0.00003
  152      5.14681    0.00000
  153      5.27370    0.00000
  154      5.35556    0.00000
  155      5.39148    0.00000
  156      5.98484    0.00000
  157      6.46521    0.00000
  158      6.81640    0.00000
  159      8.11611    0.00000
  160      8.31179    0.00000
  161      9.63217    0.00000
  162      9.93110    0.00000
  163     10.04584    0.00000
  164     10.34030    0.00000
  165     10.35653    0.00000
  166     10.38021    0.00000
  167     10.43965    0.00000
  168     10.73633    0.00000
  169     10.75851    0.00000
  170     10.91707    0.00000
  171     11.01811    0.00000
  172     11.38652    0.00000
  173     11.52171    0.00000
  174     11.64919    0.00000
  175     12.02880    0.00000
  176     12.11131    0.00000
  177     12.85212    0.00000
  178     13.08678    0.00000
  179     13.41578    0.00000
  180     14.35521    0.00000
  181     14.53108    0.00000
  182     14.95145    0.00000
  183     14.99130    0.00000
  184     15.13876    0.00000
  185     15.50466    0.00000
  186     15.59633    0.00000
  187     15.81557    0.00000
  188     16.20183    0.00000
  189     16.24679    0.00000
  190     16.42973    0.00000
  191     16.43654    0.00000
  192     16.50033    0.00000
  193     16.84311    0.00000
  194     16.88137    0.00000
  195     16.94633    0.00000
  196     16.98615    0.00000
  197     16.99770    0.00000
  198     17.10353    0.00000
  199     17.12189    0.00000
  200     17.33964    0.00000
  201     17.39252    0.00000
  202     17.41865    0.00000
  203     17.45050    0.00000

Timing:                              incl.     excl.
-----------------------------------------------------------
Hamiltonian:                         3.109     0.000   0.0% |
 Atomic:                             1.610     0.004   0.0% |
  XC Correction:                     1.607     1.607   0.1% |
 Calculate atomic Hamiltonians:      0.014     0.014   0.0% |
 Communicate:                        0.000     0.000   0.0% |
 Hartree integrate/restrict:         0.005     0.005   0.0% |
 Initialize Hamiltonian:             0.000     0.000   0.0% |
 Poisson:                            1.143     1.143   0.1% |
 XC 3D grid:                         0.333     0.333   0.0% |
 vbar:                               0.003     0.003   0.0% |
LCAO initialization:                10.954     0.237   0.0% |
 LCAO eigensolver:                   1.422     0.000   0.0% |
  Calculate projections:             0.008     0.008   0.0% |
  DenseAtomicCorrection:             0.009     0.009   0.0% |
  Distribute overlap matrix:         0.000     0.000   0.0% |
  Orbital Layouts:                   0.025     0.025   0.0% |
  Potential matrix:                  1.379     1.379   0.1% |
 LCAO to grid:                       8.337     8.337   0.5% |
 Set positions (LCAO WFS):           0.958     0.000   0.0% |
  Basic WFS set positions:           0.001     0.001   0.0% |
  Basis functions set positions:     0.000     0.000   0.0% |
  TCI: Calculate S, T, P:            0.957     0.957   0.1% |
SCF-cycle:                        1792.663     0.128   0.0% |
 Davidson:                        1395.619   298.380  16.5% |------|
  Apply hamiltonian:                40.926    40.926   2.3% ||
  Subspace diag:                   376.287     0.028   0.0% |
   calc_h_matrix:                  153.215   112.409   6.2% |-|
    Apply hamiltonian:              40.806    40.806   2.3% ||
   diagonalize:                      1.818     1.818   0.1% |
   rotate_psi:                     221.226   221.226  12.2% |----|
  calc. matrices:                  450.931   409.555  22.7% |--------|
   Apply hamiltonian:               41.376    41.376   2.3% ||
  diagonalize:                       6.628     6.628   0.4% |
  rotate_psi:                      222.467   222.467  12.3% |----|
 Density:                            7.461     0.004   0.0% |
  Atomic density matrices:           0.586     0.586   0.0% |
  Mix:                               3.908     3.908   0.2% |
  Multipole moments:                 0.133     0.133   0.0% |
  Pseudo density:                    2.830     2.827   0.2% |
   Symmetrize density:               0.004     0.004   0.0% |
 Hamiltonian:                      387.614     0.020   0.0% |
  Atomic:                          257.302     0.556   0.0% |
   XC Correction:                  256.746   256.746  14.2% |-----|
  Calculate atomic Hamiltonians:     2.323     2.323   0.1% |
  Communicate:                       0.002     0.002   0.0% |
  Hartree integrate/restrict:        0.993     0.993   0.1% |
  Poisson:                          73.764    73.764   4.1% |-|
  XC 3D grid:                       52.727    52.727   2.9% ||
  vbar:                              0.484     0.484   0.0% |
 Orthonormalize:                     1.842     0.000   0.0% |
  calc_s_matrix:                     0.452     0.452   0.0% |
  inverse-cholesky:                  0.002     0.002   0.0% |
  projections:                       0.678     0.678   0.0% |
  rotate_psi_s:                      0.710     0.710   0.0% |
Set symmetry:                        0.001     0.001   0.0% |
Other:                               1.038     1.038   0.1% |
-----------------------------------------------------------
Total:                                      1807.765 100.0%

Memory usage: 1.08 GiB
Date: Sat Mar 30 02:45:02 2019
