
  ___ ___ ___ _ _ _  
 |   |   |_  | | | | 
 | | | | | . | | | | 
 |__ |  _|___|_____|  1.4.0
 |___|_|             

User:   murakami@tssm1.eng.shizuoka.ac.jp
Date:   Sat Mar 30 08:45:56 2019
Arch:   x86_64
Pid:    31289
Python: 3.6.5
gpaw:   /home/murakami/.local/lib/python3.6/site-packages/gpaw
_gpaw:  /home/murakami/.local/lib/python3.6/site-packages/
        _gpaw.cpython-36m-x86_64-linux-gnu.so
ase:    /home/murakami/.local/lib/python3.6/site-packages/ase (version 3.16.2)
numpy:  /home/murakami/.local/lib/python3.6/site-packages/numpy (version 1.15.2)
scipy:  /home/murakami/.local/lib/python3.6/site-packages/scipy (version 1.1.0)
units:  Angstrom and eV
cores:  1

Input parameters:
  kpts: {size: (1, 1, 1)}
  maxiter: 300
  xc: PBE

System changes: positions, numbers, cell, pbc, initial_charges, initial_magmoms 

Initialize ...

Fe-setup:
  name: Iron
  id: 37abbd8d6c3c35915a9b583b742da910
  Z: 26
  valence: 8
  core: 18
  charge: 0.0
  file: /home/murakami/Public/gpaw-setups-0.9.20000/Fe.PBE.gz
  cutoffs: 1.06(comp), 2.06(filt), 2.67(core), lmax=2
  valence states:
                energy  radius
    4s(2.00)    -5.291   1.164
    4p(0.00)    -1.326   1.058
    3d(6.00)    -7.505   1.058
    *s          21.920   1.164
    *p          25.885   1.058
    *d          19.706   1.058

  Using partial waves for Fe as LCAO basis

O-setup:
  name: Oxygen
  id: 32ecd46bf208036f09c70b0ec9a88b78
  Z: 8
  valence: 6
  core: 2
  charge: 0.0
  file: /home/murakami/Public/gpaw-setups-0.9.20000/O.PBE.gz
  cutoffs: 0.67(comp), 1.17(filt), 0.83(core), lmax=2
  valence states:
                energy  radius
    2s(2.00)   -23.961   0.688
    2p(4.00)    -9.029   0.598
    *s           3.251   0.688
    *p          18.182   0.598
    *d           0.000   0.619

  Using partial waves for O as LCAO basis

F-setup:
  name: Fluorine
  id: 9cd46ba2a61e170ad72278be75b55cc0
  Z: 9
  valence: 7
  core: 2
  charge: 0.0
  file: /home/murakami/Public/gpaw-setups-0.9.20000/F.PBE.gz
  cutoffs: 0.64(comp), 1.14(filt), 0.74(core), lmax=2
  valence states:
                energy  radius
    2s(2.00)   -29.898   0.635
    2p(5.00)   -11.110   0.635
    *s          -2.687   0.635
    *p          16.102   0.635
    *d           0.000   0.635

  Using partial waves for F as LCAO basis

Reference energy: -479224.937077

Spin-paired calculation

Occupation numbers:
  Fermi-Dirac: width=0.1000 eV

Convergence criteria:
  Maximum total energy change: 0.0005 eV / electron
  Maximum integral of absolute density change: 0.0001 electrons
  Maximum integral of absolute eigenstate change: 4e-08 eV^2
  Maximum number of iterations: 300

Symmetries present (total): 1

  ( 1  0  0)
  ( 0  1  0)
  ( 0  0  1)

1 k-point (Gamma)
1 k-point in the irreducible part of the Brillouin zone
       k-points in crystal coordinates                weights
   0:     0.00000000    0.00000000    0.00000000          1/1

Wave functions: Uniform real-space grid
  Kinetic energy operator: 6*3+1=19 point O(h^6) finite-difference Laplacian
  ScaLapack parameters: grid=1x1, blocksize=None 

Eigensolver
   Davidson(niter=1, smin=None, normalize=True) 

Densities:
  Coarse grid: 16*104*32 grid
  Fine grid: 32*208*64 grid
  Total Charge: 0.000000 

Density mixing:
  Method: separate
  Backend: pulay
  Linear mixing parameter: 0.05
  Mixing with 5 old densities
  Damping of long wave oscillations: 50 

Hamiltonian:
  XC and Coulomb potentials evaluated on a 32*208*64 grid
  Using the PBE Exchange-Correlation functional
  Interpolation: tri-quintic (5. degree polynomial)
  Poisson solver: Jacobi solver with 5 multi-grid levels
    Coarsest grid: 2 x 13 x 4 points
    Stencil: 6*3+1=19 point O(h^6) finite-difference Laplacian
    Max iterations: 1000
    Tolerance: 2.000000e-10 

Memory estimate:
  Process memory now: 1103.97 MiB
  Calculator: 269.53 MiB
    Density: 69.97 MiB
      Arrays: 10.56 MiB
      Localized functions: 55.35 MiB
      Mixer: 4.06 MiB
    Hamiltonian: 19.00 MiB
      Arrays: 6.91 MiB
      XC: 0.00 MiB
      Poisson: 7.89 MiB
      vbar: 4.20 MiB
    Wavefunctions: 180.56 MiB
      Arrays psit_nG: 82.88 MiB
      Eigensolver: 88.09 MiB
      Projections: 0.82 MiB
      Projectors: 8.78 MiB

Total number of cores used: 1

Number of atoms: 36
Number of atomic orbitals: 204
Number of bands in calculation: 204
Bands to converge: occupied states only
Number of valence electrons: 262

... initialized

Initializing position-dependent things.

Density initialized from atomic densities
Creating initial wave functions:
  204 bands from LCAO basis set

              .-------.  
             /|  F    |  
            / |       |  
           /  |       |  
          /   |     F |  
         /    |  F    |  
        /   Fe|       |  
       /  FFe |F      |  
      /O      Fe------.  
     /       /      F/   
    /  Fe F F   Fe  /    
   / F     F   F   /     
  /F  F   Fe      /      
 *     F Fe  F   /       
 |   F  F       /        
 F Fe  /       /         
 |    F   F   /          
 | F Fe      /           
 O  /   F   /            
 | /   Fe  /             
 |/       /              
 *-------*               

Positions:
   0 Fe     0.000000    3.425973    3.405553    ( 0.0000,  0.0000,  0.0000)
   1 Fe     0.030279   17.123411    3.405553    ( 0.0000,  0.0000,  0.0000)
   2 Fe     0.000000   13.534338    0.009448    ( 0.0000,  0.0000,  0.0000)
   3 Fe     0.000000    6.848719    0.009448    ( 0.0000,  0.0000,  0.0000)
   4 Fe     1.626314    3.411629    0.000027    ( 0.0000,  0.0000,  0.0000)
   5 Fe     1.626314   17.137755    0.000027    ( 0.0000,  0.0000,  0.0000)
   6 Fe     1.626314   13.663840    3.396133    ( 0.0000,  0.0000,  0.0000)
   7 Fe     1.626314    6.863063    3.396133    ( 0.0000,  0.0000,  0.0000)
   8 Fe     0.015961   -0.054620    0.029519    ( 0.0000,  0.0000,  0.0000)
   9 Fe     0.000000   10.274692    3.478712    ( 0.0000,  0.0000,  0.0000)
  10 Fe     1.626314    0.064114    3.222673    ( 0.0000,  0.0000,  0.0000)
  11 Fe     1.626314   10.274692    6.604746    ( 0.0000,  0.0000,  0.0000)
  12 O      0.000000    0.000000    2.135213    ( 0.0000,  0.0000,  0.0000)
  13 O      0.000000   10.274692    5.497228    ( 0.0000,  0.0000,  0.0000)
  14 F      0.000000    3.455769    1.380850    ( 0.0000,  0.0000,  0.0000)
  15 F     -0.003031   17.093615    1.380850    ( 0.0000,  0.0000,  0.0000)
  16 F      0.000000   13.556244    4.776955    ( 0.0000,  0.0000,  0.0000)
  17 F      0.000000    6.818923    4.776955    ( 0.0000,  0.0000,  0.0000)
  18 F      0.000000    3.460146    5.429327    ( 0.0000,  0.0000,  0.0000)
  19 F     -0.025605   17.089238    5.429327    ( 0.0000,  0.0000,  0.0000)
  20 F      0.000000   13.734838    2.033221    ( 0.0000,  0.0000,  0.0000)
  21 F      0.000000    6.814546    2.033221    ( 0.0000,  0.0000,  0.0000)
  22 F      1.626314    1.405002    6.767331    ( 0.0000,  0.0000,  0.0000)
  23 F      1.653291   19.144382    6.767331    ( 0.0000,  0.0000,  0.0000)
  24 F      1.626314   11.679694    3.371226    ( 0.0000,  0.0000,  0.0000)
  25 F      1.626314    8.869690    3.371226    ( 0.0000,  0.0000,  0.0000)
  26 F      1.626314    2.017621    3.434678    ( 0.0000,  0.0000,  0.0000)
  27 F      1.626314   18.531763    3.434678    ( 0.0000,  0.0000,  0.0000)
  28 F      1.626314   12.292313    0.041276    ( 0.0000,  0.0000,  0.0000)
  29 F      1.626314    8.257071    0.038573    ( 0.0000,  0.0000,  0.0000)
  30 F      1.626314    4.809789    3.406464    ( 0.0000,  0.0000,  0.0000)
  31 F      1.626314   15.678358    3.406464    ( 0.0000,  0.0000,  0.0000)
  32 F      1.657289   15.084481    0.010358    ( 0.0000,  0.0000,  0.0000)
  33 F      1.626314    5.464903    0.010358    ( 0.0000,  0.0000,  0.0000)
  34 F      0.000000    0.000000    4.718827    ( 0.0000,  0.0000,  0.0000)
  35 F      0.000000   10.274692    1.322722    ( 0.0000,  0.0000,  0.0000)

Unit cell:
           periodic     x           y           z      points  spacing
  1. axis:    yes    3.252628    0.000000    0.000000    16     0.2033
  2. axis:    yes    0.000000   20.549384    0.000000   104     0.1976
  3. axis:    yes    0.000000    0.000000    6.792211    32     0.2123

  Lengths:   3.252628  20.549384   6.792211
  Angles:   90.000000  90.000000  90.000000

Effective grid spacing dv^(1/3) = 0.2043

                     log10-error:    total        iterations:
           time      wfs    density  energy       fermi  poisson
iter:   1  08:46:23  +1.74   +inf  -213.263524    3      19     
iter:   2  08:46:31  +0.20   +inf  -214.162517    3             
iter:   3  08:46:40  -0.38   +inf  -214.422333    2             
iter:   4  08:46:51  -0.64  -1.12  -212.120852    3      9      
iter:   5  08:47:02  -0.25  -1.16  -234.706173    34     13     
iter:   6  08:47:12  -0.26  -1.12  -274.898295    32     15     
iter:   7  08:47:23  -0.31  -1.05  -239.485020    35     15     
iter:   8  08:47:34  -0.46  -1.18  -218.511790    4      14     
iter:   9  08:47:45  -0.55  -1.27  -250.755192    4      15     
iter:  10  08:47:56  -0.65  -1.12  -211.399888    4      14     
iter:  11  08:48:06  -1.13  -1.34  -207.693789    3      10     
iter:  12  08:48:17  -1.36  -1.42  -208.765537    3      12     
iter:  13  08:48:28  -1.55  -1.39  -207.644639    3      12     
iter:  14  08:48:38  -1.65  -1.42  -209.167171    4      12     
iter:  15  08:48:49  -1.48  -1.39  -209.740771    3      13     
iter:  16  08:49:00  -1.52  -1.37  -206.821186    2      12     
iter:  17  08:49:10  -1.74  -1.48  -206.888951    3      8      
iter:  18  08:49:21  -1.86  -1.49  -207.082866    3      10     
iter:  19  08:49:32  -1.93  -1.48  -208.006816    3      12     
iter:  20  08:49:44  -1.88  -1.44  -206.165072    3      11     
iter:  21  08:49:54  -1.99  -1.54  -207.274237    3      10     
iter:  22  08:50:05  -1.45  -1.52  -213.956648    3      13     
iter:  23  08:50:18  -1.20  -1.36  -207.037825    3      12     
iter:  24  08:50:31  -1.61  -1.55  -208.802601    3      11     
iter:  25  08:50:45  -1.76  -1.48  -207.375609    3      12     
iter:  26  08:50:58  -1.80  -1.56  -206.849135    3      11     
iter:  27  08:51:11  -2.13  -1.58  -206.004819    3      10     
iter:  28  08:51:25  -2.00  -1.64  -207.393652    3      10     
iter:  29  08:51:38  -1.88  -1.57  -206.088064    2      10     
iter:  30  08:51:51  -1.96  -1.65  -209.483696    3      12     
iter:  31  08:52:04  -1.66  -1.48  -207.084275    3      12     
iter:  32  08:52:15  -1.93  -1.60  -206.147830    2      10     
iter:  33  08:52:25  -2.02  -1.68  -206.738792    2      10     
iter:  34  08:52:36  -1.92  -1.65  -206.681042    3      9      
iter:  35  08:52:46  -1.59  -1.70  -206.849582    3      8      
iter:  36  08:52:57  -1.52  -1.67  -219.908237    3      13     
iter:  37  08:53:08  -1.44  -1.31  -206.645502    4      13     
iter:  38  08:53:19  -1.74  -1.74  -206.774389    3      9      
iter:  39  08:53:30  -1.85  -1.73  -207.654609    3      11     
iter:  40  08:53:41  -2.08  -1.65  -206.585282    3      11     
iter:  41  08:53:52  -2.04  -1.78  -206.310694    3      9      
iter:  42  08:54:02  -1.90  -1.79  -212.652151    3      12     
iter:  43  08:54:13  -1.61  -1.44  -206.539328    3      13     
iter:  44  08:54:24  -2.11  -1.78  -206.318396    3      8      
iter:  45  08:54:34  -2.49  -1.82  -206.498633    3      8      
iter:  46  08:54:46  -2.22  -1.79  -207.672230    3      11     
iter:  47  08:54:56  -2.02  -1.69  -206.317268    3      11     
iter:  48  08:55:07  -1.83  -1.84  -211.296492    3      12     
iter:  49  08:55:19  -1.63  -1.50  -206.414268    3      12     
iter:  50  08:55:30  -2.12  -1.84  -206.380905    2      8      
iter:  51  08:55:40  -2.26  -1.87  -206.355744    2      8      
iter:  52  08:55:51  -2.32  -1.90  -206.837777    3      10     
iter:  53  08:56:02  -1.98  -1.87  -208.578718    3      12     
iter:  54  08:56:12  -1.72  -1.64  -207.311352    3      11     
iter:  55  08:56:23  -1.99  -1.80  -206.231617    2      11     
iter:  56  08:56:34  -2.49  -1.98  -206.061217    2      7      
iter:  57  08:56:45  -3.01  -2.03  -205.990141    2      6      
iter:  58  08:56:56  -2.61  -2.07  -206.846598    3      10     
iter:  59  08:57:07  -2.24  -1.86  -207.102342    2      11     
iter:  60  08:57:19  -2.25  -1.83  -206.224342    3      10     
iter:  61  08:57:29  -2.71  -2.01  -206.212887    3      9      
iter:  62  08:57:40  -2.58  -2.01  -206.087392    2      8      
iter:  63  08:57:50  -2.74  -2.07  -206.033302    3      7      
iter:  64  08:58:01  -3.33  -2.09  -206.059520    3      7      
iter:  65  08:58:11  -2.78  -2.10  -206.564288    2      10     
iter:  66  08:58:22  -2.57  -1.94  -206.219914    3      10     
iter:  67  08:58:33  -2.38  -2.10  -206.622208    3      10     
iter:  68  08:58:43  -2.35  -1.98  -206.211199    2      10     
iter:  69  08:58:54  -2.30  -2.14  -206.310275    2      9      
iter:  70  08:59:04  -2.47  -2.05  -206.044490    3      8      
iter:  71  08:59:15  -3.12  -2.24  -206.033195    2      7      
iter:  72  08:59:25  -3.30  -2.25  -205.975192    2      6      
iter:  73  08:59:36  -2.77  -2.31  -206.569713    2      10     
iter:  74  08:59:46  -2.51  -1.99  -206.191497    2      10     
iter:  75  08:59:57  -2.92  -2.17  -205.997650    2      8      
iter:  76  09:00:07  -2.69  -2.33  -206.195892    3      8      
iter:  77  09:00:18  -2.61  -2.16  -206.049850    2      9      
iter:  78  09:00:28  -2.82  -2.33  -206.030267    2      8      
iter:  79  09:00:40  -3.15  -2.33  -205.997509    2      7      
iter:  80  09:00:50  -3.19  -2.48  -206.004039    2      7      
iter:  81  09:01:01  -2.70  -2.49  -206.691869    2      10     
iter:  82  09:01:12  -2.60  -2.00  -206.134508    2      10     
iter:  83  09:01:22  -2.97  -2.30  -205.969325    2      8      
iter:  84  09:01:35  -3.29  -2.71  -205.961362    2      7      
iter:  85  09:01:48  -3.42  -2.61  -205.949069    2      5      
iter:  86  09:02:01  -4.20  -2.80  -205.946440    2      5      
iter:  87  09:02:14  -3.91  -2.83  -205.984230    2      6      
iter:  88  09:02:28  -3.68  -2.58  -206.012170    2      8      
iter:  89  09:02:41  -3.46  -2.49  -205.978066    2      8      
iter:  90  09:02:54  -3.56  -2.63  -205.946833    2      6      
iter:  91  09:03:06  -4.15  -2.87  -205.940808    2      4      
iter:  92  09:03:18  -4.49  -2.89  -205.947825    2      4      
iter:  93  09:03:28  -4.74  -2.88  -205.942852    2      4      
iter:  94  09:03:38  -4.12  -2.93  -205.970630    2      6      
iter:  95  09:03:49  -4.03  -2.68  -205.945216    2      6      
iter:  96  09:03:59  -4.44  -2.89  -205.942161    2      4      
iter:  97  09:04:09  -4.40  -2.93  -205.949187    2      4      
iter:  98  09:04:20  -4.28  -2.91  -205.941451    2      4      
iter:  99  09:04:31  -4.32  -2.92  -205.944311    2      4      
iter: 100  09:04:42  -4.72  -2.97  -205.945952    2      5      
iter: 101  09:04:52  -4.33  -2.91  -205.952734    2      6      
iter: 102  09:05:03  -4.32  -2.82  -205.944847    2      5      
iter: 103  09:05:13  -4.49  -3.00  -205.945662    2      5      
iter: 104  09:05:23  -4.36  -2.89  -205.948717    2      5      
iter: 105  09:05:34  -4.19  -3.00  -205.940807    2      5      
iter: 106  09:05:45  -4.16  -2.97  -205.949650    2      5      
iter: 107  09:05:55  -4.31  -2.90  -205.942861    2      5      
iter: 108  09:06:06  -4.84  -3.07  -205.940578    2      4      
iter: 109  09:06:17  -5.39  -3.10  -205.941387    2      3      
iter: 110  09:06:28  -5.27  -3.12  -205.941585    2      4      
iter: 111  09:06:38  -5.10  -3.12  -205.941319    2      4      
iter: 112  09:06:49  -4.48  -3.12  -205.948925    2      5      
iter: 113  09:06:59  -4.28  -2.95  -205.941759    1      5      
iter: 114  09:07:09  -4.40  -3.06  -205.946293    2      4      
iter: 115  09:07:20  -4.65  -3.05  -205.941584    2      4      
iter: 116  09:07:30  -5.00  -3.14  -205.940760    2      4      
iter: 117  09:07:41  -5.20  -3.17  -205.940593    2      3      
iter: 118  09:07:52  -5.32  -3.23  -205.942530    2      4      
iter: 119  09:08:03  -4.92  -3.18  -205.942955    2      4      
iter: 120  09:08:16  -4.85  -3.20  -205.940513    2      4      
iter: 121  09:08:28  -4.52  -3.18  -205.948065    2      5      
iter: 122  09:08:41  -4.29  -2.92  -205.941315    2      6      
iter: 123  09:08:53  -4.35  -3.43  -205.945229    2      5      
iter: 124  09:09:03  -4.49  -3.08  -205.942231    2      5      
iter: 125  09:09:17  -4.65  -3.29  -205.939216    2      4      
iter: 126  09:09:32  -5.12  -3.51  -205.941186    2      4      
iter: 127  09:09:48  -5.74  -3.54  -205.940862    2      3      
iter: 128  09:10:04  -5.88  -3.60  -205.940837    2      3      
iter: 129  09:10:18  -5.38  -3.68  -205.940910    2      3      
iter: 130  09:10:33  -5.40  -3.54  -205.940413    2      3      
iter: 131  09:10:43  -5.72  -3.62  -205.940768    2      4      
iter: 132  09:10:56  -5.20  -3.69  -205.940760    2      4      
iter: 133  09:11:07  -5.22  -3.31  -205.940624    2      3      
iter: 134  09:11:19  -5.96  -3.65  -205.940401    2      3      
iter: 135  09:11:29  -6.05  -3.82  -205.940258    2      3      
iter: 136  09:11:40  -6.22  -3.86  -205.940491    2      2      
iter: 137  09:11:51  -6.87  -3.91  -205.940148    2      2      
iter: 138  09:12:02  -6.28  -3.91  -205.940874    2      3      
iter: 139  09:12:14  -5.93  -3.82  -205.940360    2      3      
iter: 140  09:12:25  -6.02  -3.76  -205.940750    2      3      
iter: 141  09:12:35  -6.10  -3.84  -205.940577    2      4      
iter: 142  09:12:47  -5.88  -3.99  -205.940089    2      3      
iter: 143  09:12:58  -6.33  -3.96  -205.940647    2      3      
iter: 144  09:13:10  -6.57  -3.96  -205.940447    2      3      
iter: 145  09:13:22  -6.39  -3.91  -205.940700    2      2      
iter: 146  09:13:33  -6.31  -4.02  -205.940367    2      3      
iter: 147  09:13:45  -6.35  -4.03  -205.939946    2      3      
iter: 148  09:13:56  -6.28  -3.96  -205.940774    2      2      
iter: 149  09:14:08  -6.65  -4.08  -205.940389    2      2      
iter: 150  09:14:18  -6.28  -4.08  -205.940431    1      3      
iter: 151  09:14:29  -6.14  -3.79  -205.940616    2      3      
iter: 152  09:14:40  -6.68  -4.09  -205.940494    2      2      
iter: 153  09:14:50  -6.42  -4.21  -205.939951    2      3      
iter: 154  09:15:00  -6.33  -3.89  -205.940297    2      2      
iter: 155  09:15:11  -7.07  -4.16  -205.940569    2      2      
iter: 156  09:15:21  -7.08  -4.25  -205.940369    2      2      
iter: 157  09:15:32  -7.02  -4.21  -205.940363    2      2      
iter: 158  09:15:43  -7.10  -4.15  -205.940548    2      2      
iter: 159  09:15:54  -7.53  -4.25  -205.940483    2      1      

Converged after 159 iterations.

Dipole moment: (-24.846121, -31.889778, -32.389656) |e|*Ang

Energy contributions relative to reference atoms: (reference = -479224.937077)

Kinetic:       +176.009697
Potential:     -180.039219
External:        +0.000000
XC:            -212.531298
Entropy (-ST):   -1.411095
Local:          +11.325885
--------------------------
Free energy:   -206.646030
Extrapolated:  -205.940483

Fermi level: 3.83522

 Band  Eigenvalues  Occupancy
    0    -21.00090    2.00000
    1    -20.79133    2.00000
    2    -20.69074    2.00000
    3    -20.64476    2.00000
    4    -20.60231    2.00000
    5    -20.47440    2.00000
    6    -20.46101    2.00000
    7    -20.37834    2.00000
    8    -20.35191    2.00000
    9    -20.34610    2.00000
   10    -20.32986    2.00000
   11    -20.31184    2.00000
   12    -20.28185    2.00000
   13    -20.26180    2.00000
   14    -20.20496    2.00000
   15    -20.18167    2.00000
   16    -20.17983    2.00000
   17    -20.05220    2.00000
   18    -19.98715    2.00000
   19    -19.67620    2.00000
   20    -19.22853    2.00000
   21    -19.12231    2.00000
   22    -14.48437    2.00000
   23    -14.33351    2.00000
   24     -4.28894    2.00000
   25     -4.17507    2.00000
   26     -4.03005    2.00000
   27     -3.94395    2.00000
   28     -3.78686    2.00000
   29     -3.60804    2.00000
   30     -3.54310    2.00000
   31     -3.51017    2.00000
   32     -3.32463    2.00000
   33     -3.14501    2.00000
   34     -2.84237    2.00000
   35     -2.75241    2.00000
   36     -2.69963    2.00000
   37     -2.62916    2.00000
   38     -2.53706    2.00000
   39     -2.52748    2.00000
   40     -2.49283    2.00000
   41     -2.43496    2.00000
   42     -2.41609    2.00000
   43     -2.39777    2.00000
   44     -2.39338    2.00000
   45     -2.38482    2.00000
   46     -2.37296    2.00000
   47     -2.34680    2.00000
   48     -2.33791    2.00000
   49     -2.33447    2.00000
   50     -2.31434    2.00000
   51     -2.26066    2.00000
   52     -2.24307    2.00000
   53     -2.23291    2.00000
   54     -2.21460    2.00000
   55     -2.18806    2.00000
   56     -2.16217    2.00000
   57     -2.13750    2.00000
   58     -2.09696    2.00000
   59     -2.07592    2.00000
   60     -2.03150    2.00000
   61     -1.93404    2.00000
   62     -1.87709    2.00000
   63     -1.74566    2.00000
   64     -1.72558    2.00000
   65     -1.68410    2.00000
   66     -1.64725    2.00000
   67     -1.59120    2.00000
   68     -1.58580    2.00000
   69     -1.50683    2.00000
   70     -1.49568    2.00000
   71     -1.44026    2.00000
   72     -1.35083    2.00000
   73     -1.34287    2.00000
   74     -1.34004    2.00000
   75     -1.25056    2.00000
   76     -1.21581    2.00000
   77     -1.20577    2.00000
   78     -1.19200    2.00000
   79     -1.17914    2.00000
   80     -1.16904    2.00000
   81     -1.10650    2.00000
   82     -0.99890    2.00000
   83     -0.98307    2.00000
   84     -0.94386    2.00000
   85     -0.84572    2.00000
   86     -0.75277    2.00000
   87     -0.49040    2.00000
   88     -0.24323    2.00000
   89     -0.18086    2.00000
   90     -0.16837    2.00000
   91     -0.15142    2.00000
   92      0.03156    2.00000
   93      0.09593    2.00000
   94      0.61560    2.00000
   95      0.79270    2.00000
   96      2.81799    1.99992
   97      2.85711    1.99989
   98      2.88449    1.99985
   99      2.90323    1.99982
  100      2.91141    1.99981
  101      2.95445    1.99970
  102      2.96853    1.99966
  103      2.97443    1.99963
  104      2.98788    1.99958
  105      3.00672    1.99950
  106      3.06224    1.99912
  107      3.07560    1.99900
  108      3.13170    1.99824
  109      3.15883    1.99769
  110      3.16547    1.99754
  111      3.18184    1.99710
  112      3.19731    1.99661
  113      3.22848    1.99538
  114      3.23403    1.99511
  115      3.24224    1.99470
  116      3.26026    1.99365
  117      3.28557    1.99183
  118      3.28979    1.99148
  119      3.32956    1.98735
  120      3.33545    1.98658
  121      3.33680    1.98640
  122      3.35482    1.98374
  123      3.46809    1.95037
  124      3.49457    1.93581
  125      3.56807    1.87065
  126      3.63496    1.76215
  127      3.65007    1.72861
  128      3.74787    1.41096
  129      3.76832    1.32256
  130      3.79418    1.20236
  131      3.85179    0.91735
  132      3.90752    0.65346
  133      3.95782    0.45377
  134      3.97684    0.39052
  135      4.08057    0.15838
  136      4.15454    0.07885
  137      4.20567    0.04804
  138      4.20910    0.04646
  139      4.23038    0.03772
  140      4.24156    0.03380
  141      4.24596    0.03237
  142      4.25503    0.02960
  143      4.33426    0.01351
  144      4.35636    0.01085
  145      4.41874    0.00583
  146      4.44240    0.00460
  147      4.44550    0.00446
  148      4.45807    0.00394
  149      4.48478    0.00302
  150      4.58860    0.00107
  151      4.96585    0.00002
  152      5.14427    0.00000
  153      5.27226    0.00000
  154      5.31963    0.00000
  155      5.34235    0.00000
  156      5.99623    0.00000
  157      6.50267    0.00000
  158      6.79812    0.00000
  159      8.12204    0.00000
  160      8.32570    0.00000
  161      9.63826    0.00000
  162      9.94302    0.00000
  163     10.06253    0.00000
  164     10.32825    0.00000
  165     10.36085    0.00000
  166     10.41344    0.00000
  167     10.51185    0.00000
  168     10.70182    0.00000
  169     10.74113    0.00000
  170     10.90720    0.00000
  171     11.00915    0.00000
  172     11.39702    0.00000
  173     11.51128    0.00000
  174     11.63391    0.00000
  175     12.07883    0.00000
  176     12.10236    0.00000
  177     12.81617    0.00000
  178     13.10121    0.00000
  179     13.39894    0.00000
  180     14.36963    0.00000
  181     14.55664    0.00000
  182     14.91016    0.00000
  183     14.98633    0.00000
  184     15.12520    0.00000
  185     15.51865    0.00000
  186     15.53175    0.00000
  187     15.83733    0.00000
  188     16.20028    0.00000
  189     16.27445    0.00000
  190     16.41976    0.00000
  191     16.42647    0.00000
  192     16.45943    0.00000
  193     16.81582    0.00000
  194     16.84728    0.00000
  195     16.94725    0.00000
  196     16.98787    0.00000
  197     17.05907    0.00000
  198     17.11101    0.00000
  199     17.17186    0.00000
  200     17.33551    0.00000
  201     17.39635    0.00000
  202     17.46222    0.00000
  203     17.48352    0.00000

Timing:                              incl.     excl.
-----------------------------------------------------------
Hamiltonian:                         2.997     0.000   0.0% |
 Atomic:                             1.619     0.004   0.0% |
  XC Correction:                     1.615     1.615   0.1% |
 Calculate atomic Hamiltonians:      0.017     0.017   0.0% |
 Communicate:                        0.000     0.000   0.0% |
 Hartree integrate/restrict:         0.010     0.010   0.0% |
 Initialize Hamiltonian:             0.000     0.000   0.0% |
 Poisson:                            1.013     1.013   0.1% |
 XC 3D grid:                         0.334     0.334   0.0% |
 vbar:                               0.004     0.004   0.0% |
LCAO initialization:                12.775     0.239   0.0% |
 LCAO eigensolver:                   1.426     0.000   0.0% |
  Calculate projections:             0.008     0.008   0.0% |
  DenseAtomicCorrection:             0.008     0.008   0.0% |
  Distribute overlap matrix:         0.000     0.000   0.0% |
  Orbital Layouts:                   0.025     0.025   0.0% |
  Potential matrix:                  1.384     1.384   0.1% |
 LCAO to grid:                      10.144    10.144   0.6% |
 Set positions (LCAO WFS):           0.967     0.000   0.0% |
  Basic WFS set positions:           0.001     0.001   0.0% |
  Basis functions set positions:     0.000     0.000   0.0% |
  TCI: Calculate S, T, P:            0.965     0.965   0.1% |
SCF-cycle:                        1781.146     0.132   0.0% |
 Davidson:                        1395.708   313.854  17.5% |------|
  Apply hamiltonian:                33.618    33.618   1.9% ||
  Subspace diag:                   372.126     0.028   0.0% |
   calc_h_matrix:                  147.178   113.601   6.3% |--|
    Apply hamiltonian:              33.577    33.577   1.9% ||
   diagonalize:                      1.841     1.841   0.1% |
   rotate_psi:                     223.078   223.078  12.4% |----|
  calc. matrices:                  445.804   412.089  22.9% |--------|
   Apply hamiltonian:               33.715    33.715   1.9% ||
  diagonalize:                       6.596     6.596   0.4% |
  rotate_psi:                      223.709   223.709  12.4% |----|
 Density:                            8.105     0.004   0.0% |
  Atomic density matrices:           0.620     0.620   0.0% |
  Mix:                               4.315     4.315   0.2% |
  Multipole moments:                 0.134     0.134   0.0% |
  Pseudo density:                    3.032     3.029   0.2% |
   Symmetrize density:               0.003     0.003   0.0% |
 Hamiltonian:                      375.263     0.019   0.0% |
  Atomic:                          259.544     0.588   0.0% |
   XC Correction:                  258.955   258.955  14.4% |-----|
  Calculate atomic Hamiltonians:     2.326     2.326   0.1% |
  Communicate:                       0.001     0.001   0.0% |
  Hartree integrate/restrict:        1.169     1.169   0.1% |
  Poisson:                          58.115    58.115   3.2% ||
  XC 3D grid:                       53.471    53.471   3.0% ||
  vbar:                              0.619     0.619   0.0% |
 Orthonormalize:                     1.939     0.000   0.0% |
  calc_s_matrix:                     0.444     0.444   0.0% |
  inverse-cholesky:                  0.002     0.002   0.0% |
  projections:                       0.776     0.776   0.0% |
  rotate_psi_s:                      0.717     0.717   0.0% |
Set symmetry:                        0.001     0.001   0.0% |
Other:                               1.070     1.070   0.1% |
-----------------------------------------------------------
Total:                                      1797.989 100.0%

Memory usage: 1.08 GiB
Date: Sat Mar 30 09:15:54 2019
