
  ___ ___ ___ _ _ _  
 |   |   |_  | | | | 
 | | | | | . | | | | 
 |__ |  _|___|_____|  1.4.0
 |___|_|             

User:   murakami@tssm1.eng.shizuoka.ac.jp
Date:   Sat Mar 30 00:38:00 2019
Arch:   x86_64
Pid:    31289
Python: 3.6.5
gpaw:   /home/murakami/.local/lib/python3.6/site-packages/gpaw
_gpaw:  /home/murakami/.local/lib/python3.6/site-packages/
        _gpaw.cpython-36m-x86_64-linux-gnu.so
ase:    /home/murakami/.local/lib/python3.6/site-packages/ase (version 3.16.2)
numpy:  /home/murakami/.local/lib/python3.6/site-packages/numpy (version 1.15.2)
scipy:  /home/murakami/.local/lib/python3.6/site-packages/scipy (version 1.1.0)
units:  Angstrom and eV
cores:  1

Input parameters:
  kpts: {size: (1, 1, 1)}
  maxiter: 300
  xc: PBE

System changes: positions, numbers, cell, pbc, initial_charges, initial_magmoms 

Initialize ...

Fe-setup:
  name: Iron
  id: 37abbd8d6c3c35915a9b583b742da910
  Z: 26
  valence: 8
  core: 18
  charge: 0.0
  file: /home/murakami/Public/gpaw-setups-0.9.20000/Fe.PBE.gz
  cutoffs: 1.06(comp), 2.06(filt), 2.67(core), lmax=2
  valence states:
                energy  radius
    4s(2.00)    -5.291   1.164
    4p(0.00)    -1.326   1.058
    3d(6.00)    -7.505   1.058
    *s          21.920   1.164
    *p          25.885   1.058
    *d          19.706   1.058

  Using partial waves for Fe as LCAO basis

O-setup:
  name: Oxygen
  id: 32ecd46bf208036f09c70b0ec9a88b78
  Z: 8
  valence: 6
  core: 2
  charge: 0.0
  file: /home/murakami/Public/gpaw-setups-0.9.20000/O.PBE.gz
  cutoffs: 0.67(comp), 1.17(filt), 0.83(core), lmax=2
  valence states:
                energy  radius
    2s(2.00)   -23.961   0.688
    2p(4.00)    -9.029   0.598
    *s           3.251   0.688
    *p          18.182   0.598
    *d           0.000   0.619

  Using partial waves for O as LCAO basis

F-setup:
  name: Fluorine
  id: 9cd46ba2a61e170ad72278be75b55cc0
  Z: 9
  valence: 7
  core: 2
  charge: 0.0
  file: /home/murakami/Public/gpaw-setups-0.9.20000/F.PBE.gz
  cutoffs: 0.64(comp), 1.14(filt), 0.74(core), lmax=2
  valence states:
                energy  radius
    2s(2.00)   -29.898   0.635
    2p(5.00)   -11.110   0.635
    *s          -2.687   0.635
    *p          16.102   0.635
    *d           0.000   0.635

  Using partial waves for F as LCAO basis

Reference energy: -479224.937077

Spin-paired calculation

Occupation numbers:
  Fermi-Dirac: width=0.1000 eV

Convergence criteria:
  Maximum total energy change: 0.0005 eV / electron
  Maximum integral of absolute density change: 0.0001 electrons
  Maximum integral of absolute eigenstate change: 4e-08 eV^2
  Maximum number of iterations: 300

Symmetries present (total): 1

  ( 1  0  0)
  ( 0  1  0)
  ( 0  0  1)

1 k-point (Gamma)
1 k-point in the irreducible part of the Brillouin zone
       k-points in crystal coordinates                weights
   0:     0.00000000    0.00000000    0.00000000          1/1

Wave functions: Uniform real-space grid
  Kinetic energy operator: 6*3+1=19 point O(h^6) finite-difference Laplacian
  ScaLapack parameters: grid=1x1, blocksize=None 

Eigensolver
   Davidson(niter=1, smin=None, normalize=True) 

Densities:
  Coarse grid: 16*104*32 grid
  Fine grid: 32*208*64 grid
  Total Charge: 0.000000 

Density mixing:
  Method: separate
  Backend: pulay
  Linear mixing parameter: 0.05
  Mixing with 5 old densities
  Damping of long wave oscillations: 50 

Hamiltonian:
  XC and Coulomb potentials evaluated on a 32*208*64 grid
  Using the PBE Exchange-Correlation functional
  Interpolation: tri-quintic (5. degree polynomial)
  Poisson solver: Jacobi solver with 5 multi-grid levels
    Coarsest grid: 2 x 13 x 4 points
    Stencil: 6*3+1=19 point O(h^6) finite-difference Laplacian
    Max iterations: 1000
    Tolerance: 2.000000e-10 

Memory estimate:
  Process memory now: 1103.97 MiB
  Calculator: 269.95 MiB
    Density: 70.31 MiB
      Arrays: 10.56 MiB
      Localized functions: 55.69 MiB
      Mixer: 4.06 MiB
    Hamiltonian: 19.02 MiB
      Arrays: 6.91 MiB
      XC: 0.00 MiB
      Poisson: 7.89 MiB
      vbar: 4.23 MiB
    Wavefunctions: 180.62 MiB
      Arrays psit_nG: 82.88 MiB
      Eigensolver: 88.09 MiB
      Projections: 0.82 MiB
      Projectors: 8.83 MiB

Total number of cores used: 1

Number of atoms: 36
Number of atomic orbitals: 204
Number of bands in calculation: 204
Bands to converge: occupied states only
Number of valence electrons: 262

... initialized

Initializing position-dependent things.

Density initialized from atomic densities
Creating initial wave functions:
  204 bands from LCAO basis set

              .-------.  
             /|  F    |  
            / |       |  
           /  |       |  
          / F |       |  
         /    |  F    |  
        /   Fe|       |  
       /  FFe |F      |  
      /O      Fe------.  
     /      F/       /   
    /  Fe F F   Fe  /    
   / F     F   F   /     
  /F  F   Fe      /      
 *     F Fe  F   /       
 |   F  F       /        
 F Fe  /       /         
 |    F   F   /          
 | F Fe      /           
 O  /   F   /            
 | /   Fe  /             
 |/       /              
 Fe------*               

Positions:
   0 Fe     0.000000    3.425973    3.399976    ( 0.0000,  0.0000,  0.0000)
   1 Fe     0.000000   17.123411    3.399976    ( 0.0000,  0.0000,  0.0000)
   2 Fe     0.000000   13.700665    0.009432    ( 0.0000,  0.0000,  0.0000)
   3 Fe     0.000000    6.848719    0.009432    ( 0.0000,  0.0000,  0.0000)
   4 Fe     1.619068    3.411629    0.000027    ( 0.0000,  0.0000,  0.0000)
   5 Fe     1.619068   17.137755    0.000027    ( 0.0000,  0.0000,  0.0000)
   6 Fe     1.619068   13.686321    3.390571    ( 0.0000,  0.0000,  0.0000)
   7 Fe     1.619068    6.863063    3.390571    ( 0.0000,  0.0000,  0.0000)
   8 Fe     0.000000    0.000000    0.082472    ( 0.0000,  0.0000,  0.0000)
   9 Fe     0.000000   10.274692    3.473015    ( 0.0000,  0.0000,  0.0000)
  10 Fe     1.628484    0.000000    3.203385    ( 0.0000,  0.0000,  0.0000)
  11 Fe     1.619068   10.274692    6.593929    ( 0.0000,  0.0000,  0.0000)
  12 O      0.000000    0.000000    2.131716    ( 0.0000,  0.0000,  0.0000)
  13 O      0.000000   10.274692    5.522260    ( 0.0000,  0.0000,  0.0000)
  14 F      0.000000    3.455769    1.378588    ( 0.0000,  0.0000,  0.0000)
  15 F      0.000000   17.093615    1.378588    ( 0.0000,  0.0000,  0.0000)
  16 F      0.000000   13.730461    4.769132    ( 0.0000,  0.0000,  0.0000)
  17 F      0.000000    6.818923    4.711804    ( 0.0000,  0.0000,  0.0000)
  18 F      0.000000    3.460146    5.420435    ( 0.0000,  0.0000,  0.0000)
  19 F      0.000000   17.089238    5.420435    ( 0.0000,  0.0000,  0.0000)
  20 F      0.000000   13.734838    2.029891    ( 0.0000,  0.0000,  0.0000)
  21 F      0.000000    6.814546    2.029891    ( 0.0000,  0.0000,  0.0000)
  22 F      1.619068    1.405002    6.756248    ( 0.0000,  0.0000,  0.0000)
  23 F      1.619068   19.144382    6.756248    ( 0.0000,  0.0000,  0.0000)
  24 F      1.619068   11.679694    3.365704    ( 0.0000,  0.0000,  0.0000)
  25 F      1.619068    8.869690    3.365704    ( 0.0000,  0.0000,  0.0000)
  26 F      1.619068    2.017621    3.429053    ( 0.0000,  0.0000,  0.0000)
  27 F      1.619068   18.531763    3.429053    ( 0.0000,  0.0000,  0.0000)
  28 F      1.619068   12.292313    0.038510    ( 0.0000,  0.0000,  0.0000)
  29 F      1.619068    8.257071    0.038510    ( 0.0000,  0.0000,  0.0000)
  30 F      1.619068    4.809789    3.400885    ( 0.0000,  0.0000,  0.0000)
  31 F      1.619068   15.739595    3.400885    ( 0.0000,  0.0000,  0.0000)
  32 F      1.645582   15.084481    0.010341    ( 0.0000,  0.0000,  0.0000)
  33 F      1.619068    5.464903    0.010341    ( 0.0000,  0.0000,  0.0000)
  34 F      0.000000    0.198137    4.711099    ( 0.0000,  0.0000,  0.0000)
  35 F      0.000000   10.274692    1.320556    ( 0.0000,  0.0000,  0.0000)

Unit cell:
           periodic     x           y           z      points  spacing
  1. axis:    yes    3.238136    0.000000    0.000000    16     0.2024
  2. axis:    yes    0.000000   20.549384    0.000000   104     0.1976
  3. axis:    yes    0.000000    0.000000    6.781087    32     0.2119

  Lengths:   3.238136  20.549384   6.781087
  Angles:   90.000000  90.000000  90.000000

Effective grid spacing dv^(1/3) = 0.2039

                     log10-error:    total        iterations:
           time      wfs    density  energy       fermi  poisson
iter:   1  00:38:25  +1.75   +inf  -213.522903    3      19     
iter:   2  00:38:36  +0.21   +inf  -214.431906    3             
iter:   3  00:38:47  -0.37   +inf  -214.694603    2             
iter:   4  00:39:02  -0.64  -1.12  -212.491562    3      9      
iter:   5  00:39:13  -0.28  -1.16  -232.804949    37     12     
iter:   6  00:39:24  -0.27  -1.11  -307.792524    3      16     
iter:   7  00:39:35  -0.27  -1.05  -217.558773    36     15     
iter:   8  00:39:46  -0.52  -1.25  -217.833227    4      13     
iter:   9  00:39:59  -0.59  -1.26  -256.223353    36     15     
iter:  10  00:40:12  -0.61  -1.09  -214.416870    35     14     
iter:  11  00:40:25  -0.96  -1.29  -207.269126    3      11     
iter:  12  00:40:38  -1.45  -1.44  -211.054517    4      12     
iter:  13  00:40:51  -1.40  -1.33  -208.200956    3      13     
iter:  14  00:41:03  -1.58  -1.42  -210.361609    3      11     
iter:  15  00:41:16  -1.51  -1.37  -212.196974    3      13     
iter:  16  00:41:29  -1.50  -1.33  -208.315539    2      13     
iter:  17  00:41:41  -1.67  -1.43  -206.671732    3      9      
iter:  18  00:41:52  -2.23  -1.49  -206.574306    3      7      
iter:  19  00:42:02  -2.10  -1.51  -207.745139    3      10     
iter:  20  00:42:13  -1.73  -1.47  -215.925165    3      13     
iter:  21  00:42:24  -1.20  -1.27  -230.259394    3      14     
iter:  22  00:42:35  -1.16  -1.20  -207.499702    4      14     
iter:  23  00:42:46  -1.56  -1.51  -208.189222    3      8      
iter:  24  00:42:57  -1.64  -1.48  -207.024340    3      10     
iter:  25  00:43:08  -1.88  -1.55  -206.485019    3      9      
iter:  26  00:43:18  -2.11  -1.58  -209.951030    4      11     
iter:  27  00:43:29  -1.62  -1.44  -210.421422    3      13     
iter:  28  00:43:40  -1.66  -1.43  -206.772357    2      12     
iter:  29  00:43:50  -1.92  -1.59  -206.522238    3      9      
iter:  30  00:44:02  -1.86  -1.64  -207.032997    3      8      
iter:  31  00:44:12  -1.74  -1.64  -207.492347    3      10     
iter:  32  00:44:23  -1.67  -1.58  -207.585992    3      10     
iter:  33  00:44:34  -1.55  -1.65  -210.052943    4      12     
iter:  34  00:44:46  -1.15  -1.58  -218.299672    3      14     
iter:  35  00:44:56  -1.38  -1.31  -209.371349    3      13     
iter:  36  00:45:07  -1.78  -1.57  -206.922945    3      10     
iter:  37  00:45:18  -2.24  -1.76  -206.768022    3      8      
iter:  38  00:45:28  -2.85  -1.79  -206.769668    3      6      
iter:  39  00:45:39  -1.71  -1.81  -213.295146    4      13     
iter:  40  00:45:50  -1.39  -1.49  -213.194898    3      14     
iter:  41  00:46:02  -1.60  -1.43  -206.807274    3      12     
iter:  42  00:46:12  -2.03  -1.87  -206.977432    3      7      
iter:  43  00:46:23  -2.29  -1.83  -206.728186    2      8      
iter:  44  00:46:34  -2.57  -1.89  -206.531443    2      6      
iter:  45  00:46:45  -2.16  -1.93  -209.720831    3      12     
iter:  46  00:46:56  -1.66  -1.62  -212.658014    3      13     
iter:  47  00:47:07  -1.68  -1.47  -206.888142    3      12     
iter:  48  00:47:17  -2.29  -1.88  -206.642997    3      7      
iter:  49  00:47:28  -2.61  -1.95  -206.551280    3      8      
iter:  50  00:47:39  -2.60  -2.01  -206.589859    3      7      
iter:  51  00:47:49  -2.69  -1.97  -206.864559    3      9      
iter:  52  00:48:00  -2.15  -1.95  -208.746750    3      12     
iter:  53  00:48:11  -1.92  -1.72  -206.619364    3      11     
iter:  54  00:48:21  -2.39  -2.02  -206.579057    2      9      
iter:  55  00:48:32  -2.55  -2.03  -206.541699    2      9      
iter:  56  00:48:42  -2.48  -2.12  -206.645334    2      8      
iter:  57  00:48:53  -2.79  -2.02  -206.449096    2      7      
iter:  58  00:49:04  -2.13  -2.12  -211.285340    3      12     
iter:  59  00:49:14  -1.78  -1.56  -206.658628    3      12     
iter:  60  00:49:25  -2.38  -2.04  -206.701939    3      8      
iter:  61  00:49:36  -2.50  -2.05  -206.726440    3      10     
iter:  62  00:49:46  -2.72  -2.04  -206.450396    2      7      
iter:  63  00:49:57  -3.37  -2.16  -206.439033    2      6      
iter:  64  00:50:08  -2.33  -2.16  -207.530554    3      10     
iter:  65  00:50:19  -2.15  -1.87  -206.485954    3      9      
iter:  66  00:50:30  -2.73  -2.15  -206.437000    2      8      
iter:  67  00:50:40  -2.73  -2.17  -206.355974    2      8      
iter:  68  00:50:51  -3.54  -2.23  -206.347747    2      6      
iter:  69  00:51:03  -3.43  -2.25  -206.412432    2      7      
iter:  70  00:51:16  -2.50  -2.20  -206.856890    3      9      
iter:  71  00:51:33  -2.40  -2.01  -206.789032    3      11     
iter:  72  00:51:50  -2.47  -2.03  -206.428526    2      10     
iter:  73  00:52:08  -2.62  -2.22  -206.448888    3      6      
iter:  74  00:52:25  -2.97  -2.21  -206.385062    2      8      
iter:  75  00:52:41  -3.80  -2.24  -206.339427    2      5      
iter:  76  00:52:54  -3.29  -2.29  -206.443365    2      7      
iter:  77  00:53:07  -2.93  -2.20  -206.484424    2      9      
iter:  78  00:53:21  -2.82  -2.19  -206.344275    2      9      
iter:  79  00:53:36  -3.03  -2.32  -206.415339    2      7      
iter:  80  00:53:49  -2.94  -2.27  -206.606782    2      9      
iter:  81  00:54:03  -2.99  -2.13  -206.299865    2      9      
iter:  82  00:54:19  -3.56  -2.38  -206.298661    2      6      
iter:  83  00:54:34  -3.49  -2.41  -206.295651    2      6      
iter:  84  00:54:48  -2.80  -2.46  -206.361957    2      7      
iter:  85  00:55:03  -2.77  -2.33  -206.455359    2      8      
iter:  86  00:55:18  -2.84  -2.25  -206.599760    3      9      
iter:  87  00:55:32  -2.62  -2.19  -206.643390    3      10     
iter:  88  00:55:45  -2.71  -2.14  -206.349538    2      9      
iter:  89  00:55:57  -3.28  -2.43  -206.286122    2      6      
iter:  90  00:56:09  -3.86  -2.57  -206.287844    2      5      
iter:  91  00:56:21  -4.02  -2.62  -206.286919    2      5      
iter:  92  00:56:34  -3.12  -2.64  -206.624467    2      9      
iter:  93  00:56:45  -2.92  -2.19  -206.303816    2      9      
iter:  94  00:56:55  -3.38  -2.57  -206.285315    2      7      
iter:  95  00:57:07  -3.63  -2.62  -206.288625    2      5      
iter:  96  00:57:22  -4.02  -2.69  -206.276911    2      4      
iter:  97  00:57:37  -4.34  -2.75  -206.279265    2      5      
iter:  98  00:57:51  -3.31  -2.74  -206.573234    2      9      
iter:  99  00:58:05  -3.07  -2.20  -206.290289    2      9      
iter: 100  00:58:19  -3.63  -2.63  -206.276284    2      5      
iter: 101  00:58:33  -4.14  -2.80  -206.270942    2      4      
iter: 102  00:58:47  -4.21  -2.79  -206.277421    2      4      
iter: 103  00:59:02  -4.70  -2.79  -206.274448    2      4      
iter: 104  00:59:16  -3.62  -2.84  -206.346293    2      7      
iter: 105  00:59:33  -3.51  -2.46  -206.278686    2      7      
iter: 106  00:59:49  -3.63  -2.85  -206.305276    2      6      
iter: 107  01:00:07  -3.57  -2.60  -206.281234    2      7      
iter: 108  01:00:22  -3.80  -2.93  -206.278684    2      6      
iter: 109  01:00:38  -3.77  -3.04  -206.287382    2      7      
iter: 110  01:00:52  -3.69  -2.71  -206.283285    2      7      
iter: 111  01:01:06  -3.85  -2.84  -206.269828    2      6      
iter: 112  01:01:21  -4.58  -3.34  -206.270005    2      4      
iter: 113  01:01:35  -4.97  -3.30  -206.268404    2      4      
iter: 114  01:01:49  -5.41  -3.34  -206.268520    2      4      
iter: 115  01:02:00  -5.20  -3.44  -206.270619    2      4      
iter: 116  01:02:10  -4.54  -3.36  -206.268501    2      5      
iter: 117  01:02:24  -4.58  -3.11  -206.268073    2      4      
iter: 118  01:02:38  -5.16  -3.62  -206.267818    2      3      
iter: 119  01:02:53  -5.15  -3.49  -206.269148    2      4      
iter: 120  01:03:08  -5.43  -3.54  -206.267769    2      3      
iter: 121  01:03:21  -6.09  -3.70  -206.267849    2      2      
iter: 122  01:03:35  -5.55  -3.70  -206.267139    2      3      
iter: 123  01:03:49  -5.42  -3.51  -206.267787    2      3      
iter: 124  01:04:04  -5.98  -3.75  -206.267758    2      3      
iter: 125  01:04:18  -5.84  -3.65  -206.267545    2      3      
iter: 126  01:04:29  -6.01  -3.66  -206.268027    2      3      
iter: 127  01:04:39  -6.17  -3.74  -206.267767    2      2      
iter: 128  01:04:50  -5.35  -3.80  -206.267546    2      4      
iter: 129  01:05:01  -5.14  -3.30  -206.267958    2      4      
iter: 130  01:05:11  -5.92  -3.81  -206.267537    2      3      
iter: 131  01:05:21  -5.61  -3.65  -206.268098    2      3      
iter: 132  01:05:32  -5.59  -3.50  -206.268249    2      4      
iter: 133  01:05:42  -5.54  -3.64  -206.268466    2      3      
iter: 134  01:05:53  -5.60  -3.72  -206.266784    2      3      
iter: 135  01:06:03  -6.03  -3.78  -206.266944    2      4      
iter: 136  01:06:14  -5.43  -3.88  -206.269802    2      3      
iter: 137  01:06:24  -5.41  -3.47  -206.267339    2      3      
iter: 138  01:06:34  -5.40  -3.85  -206.268493    1      4      
iter: 139  01:06:45  -5.48  -3.62  -206.267201    2      3      
iter: 140  01:06:55  -5.92  -4.13  -206.267899    2      3      
iter: 141  01:07:06  -6.08  -4.10  -206.267403    2      2      
iter: 142  01:07:16  -6.77  -4.19  -206.267639    2      2      
iter: 143  01:07:26  -6.99  -4.23  -206.267510    2      2      
iter: 144  01:07:37  -7.65  -4.29  -206.267528    1      1      

Converged after 144 iterations.

Dipole moment: (-24.786771, -46.163542, -33.820310) |e|*Ang

Energy contributions relative to reference atoms: (reference = -479224.937077)

Kinetic:       +178.857099
Potential:     -181.885001
External:        +0.000000
XC:            -213.789048
Entropy (-ST):   -1.391262
Local:          +11.245053
--------------------------
Free energy:   -206.963159
Extrapolated:  -206.267528

Fermi level: 3.91303

 Band  Eigenvalues  Occupancy
    0    -20.77112    2.00000
    1    -20.76209    2.00000
    2    -20.62506    2.00000
    3    -20.60533    2.00000
    4    -20.38353    2.00000
    5    -20.37218    2.00000
    6    -20.34280    2.00000
    7    -20.33323    2.00000
    8    -20.33053    2.00000
    9    -20.31160    2.00000
   10    -20.30218    2.00000
   11    -20.29345    2.00000
   12    -20.24176    2.00000
   13    -20.21784    2.00000
   14    -20.18485    2.00000
   15    -20.16069    2.00000
   16    -20.14618    2.00000
   17    -20.13400    2.00000
   18    -20.12055    2.00000
   19    -20.08555    2.00000
   20    -18.99098    2.00000
   21    -18.92249    2.00000
   22    -14.48278    2.00000
   23    -14.48070    2.00000
   24     -4.26683    2.00000
   25     -4.18084    2.00000
   26     -4.00842    2.00000
   27     -3.93991    2.00000
   28     -3.68888    2.00000
   29     -3.50341    2.00000
   30     -3.46225    2.00000
   31     -3.41596    2.00000
   32     -3.30543    2.00000
   33     -3.13165    2.00000
   34     -2.70754    2.00000
   35     -2.67592    2.00000
   36     -2.58825    2.00000
   37     -2.53350    2.00000
   38     -2.47145    2.00000
   39     -2.45410    2.00000
   40     -2.42048    2.00000
   41     -2.39796    2.00000
   42     -2.37584    2.00000
   43     -2.36391    2.00000
   44     -2.36154    2.00000
   45     -2.33652    2.00000
   46     -2.29985    2.00000
   47     -2.29715    2.00000
   48     -2.29001    2.00000
   49     -2.26246    2.00000
   50     -2.22028    2.00000
   51     -2.19004    2.00000
   52     -2.17968    2.00000
   53     -2.16603    2.00000
   54     -2.15756    2.00000
   55     -2.15280    2.00000
   56     -2.14600    2.00000
   57     -2.13839    2.00000
   58     -2.11043    2.00000
   59     -2.08207    2.00000
   60     -1.98558    2.00000
   61     -1.91338    2.00000
   62     -1.89715    2.00000
   63     -1.75451    2.00000
   64     -1.67925    2.00000
   65     -1.64852    2.00000
   66     -1.59728    2.00000
   67     -1.58793    2.00000
   68     -1.54604    2.00000
   69     -1.52870    2.00000
   70     -1.51564    2.00000
   71     -1.44511    2.00000
   72     -1.34277    2.00000
   73     -1.30818    2.00000
   74     -1.28414    2.00000
   75     -1.24941    2.00000
   76     -1.24141    2.00000
   77     -1.19200    2.00000
   78     -1.18805    2.00000
   79     -1.15186    2.00000
   80     -1.14349    2.00000
   81     -1.10706    2.00000
   82     -1.08342    2.00000
   83     -1.04482    2.00000
   84     -0.92864    2.00000
   85     -0.89363    2.00000
   86     -0.73437    2.00000
   87     -0.67636    2.00000
   88     -0.07484    2.00000
   89     -0.06150    2.00000
   90     -0.02439    2.00000
   91     -0.01478    2.00000
   92      0.12520    2.00000
   93      0.15693    2.00000
   94      0.68982    2.00000
   95      0.70397    2.00000
   96      2.88244    1.99993
   97      2.91844    1.99990
   98      2.95035    1.99987
   99      2.96643    1.99985
  100      2.98001    1.99982
  101      3.02123    1.99973
  102      3.03179    1.99970
  103      3.03720    1.99969
  104      3.05055    1.99964
  105      3.06384    1.99959
  106      3.12692    1.99923
  107      3.13462    1.99917
  108      3.23085    1.99782
  109      3.23316    1.99777
  110      3.23631    1.99770
  111      3.27132    1.99674
  112      3.29429    1.99590
  113      3.29520    1.99586
  114      3.29869    1.99571
  115      3.31096    1.99516
  116      3.31858    1.99477
  117      3.36816    1.99143
  118      3.37189    1.99111
  119      3.38236    1.99013
  120      3.40677    1.98742
  121      3.42500    1.98492
  122      3.43743    1.98295
  123      3.54649    1.95009
  124      3.56569    1.93984
  125      3.64197    1.87529
  126      3.70960    1.76870
  127      3.72859    1.72693
  128      3.82652    1.40744
  129      3.84337    1.33486
  130      3.87089    1.20761
  131      3.92680    0.93122
  132      3.99098    0.62884
  133      4.03340    0.46163
  134      4.05165    0.40000
  135      4.16230    0.15274
  136      4.23727    0.07520
  137      4.29076    0.04474
  138      4.30744    0.03800
  139      4.31590    0.03497
  140      4.32563    0.03178
  141      4.33225    0.02977
  142      4.33873    0.02793
  143      4.42572    0.01180
  144      4.43739    0.01051
  145      4.53228    0.00408
  146      4.53407    0.00401
  147      4.53739    0.00388
  148      4.55923    0.00312
  149      4.58127    0.00250
  150      4.67739    0.00096
  151      5.04947    0.00002
  152      5.22805    0.00000
  153      5.35733    0.00000
  154      5.44113    0.00000
  155      5.45479    0.00000
  156      6.06719    0.00000
  157      6.55260    0.00000
  158      6.89128    0.00000
  159      8.19634    0.00000
  160      8.39870    0.00000
  161      9.71738    0.00000
  162     10.03050    0.00000
  163     10.16291    0.00000
  164     10.42193    0.00000
  165     10.42918    0.00000
  166     10.47693    0.00000
  167     10.53003    0.00000
  168     10.78467    0.00000
  169     10.86245    0.00000
  170     10.99849    0.00000
  171     11.12288    0.00000
  172     11.49641    0.00000
  173     11.59038    0.00000
  174     11.72443    0.00000
  175     12.13125    0.00000
  176     12.22479    0.00000
  177     12.93718    0.00000
  178     13.20778    0.00000
  179     13.51460    0.00000
  180     14.43026    0.00000
  181     14.59675    0.00000
  182     15.01331    0.00000
  183     15.08270    0.00000
  184     15.22193    0.00000
  185     15.56047    0.00000
  186     15.72115    0.00000
  187     15.90321    0.00000
  188     16.29964    0.00000
  189     16.38167    0.00000
  190     16.48455    0.00000
  191     16.55664    0.00000
  192     16.58656    0.00000
  193     16.88174    0.00000
  194     16.98156    0.00000
  195     17.01357    0.00000
  196     17.07790    0.00000
  197     17.11033    0.00000
  198     17.19957    0.00000
  199     17.22190    0.00000
  200     17.36634    0.00000
  201     17.47852    0.00000
  202     17.51250    0.00000
  203     17.82904    0.00000

Timing:                              incl.     excl.
-----------------------------------------------------------
Hamiltonian:                         2.900     0.000   0.0% |
 Atomic:                             1.613     0.003   0.0% |
  XC Correction:                     1.610     1.610   0.1% |
 Calculate atomic Hamiltonians:      0.015     0.015   0.0% |
 Communicate:                        0.000     0.000   0.0% |
 Hartree integrate/restrict:         0.006     0.006   0.0% |
 Initialize Hamiltonian:             0.000     0.000   0.0% |
 Poisson:                            0.934     0.934   0.1% |
 XC 3D grid:                         0.328     0.328   0.0% |
 vbar:                               0.003     0.003   0.0% |
LCAO initialization:                11.283     0.228   0.0% |
 LCAO eigensolver:                   1.435     0.000   0.0% |
  Calculate projections:             0.008     0.008   0.0% |
  DenseAtomicCorrection:             0.008     0.008   0.0% |
  Distribute overlap matrix:         0.000     0.000   0.0% |
  Orbital Layouts:                   0.025     0.025   0.0% |
  Potential matrix:                  1.394     1.394   0.1% |
 LCAO to grid:                       8.637     8.637   0.5% |
 Set positions (LCAO WFS):           0.982     0.000   0.0% |
  Basic WFS set positions:           0.001     0.001   0.0% |
  Basis functions set positions:     0.000     0.000   0.0% |
  TCI: Calculate S, T, P:            0.981     0.981   0.1% |
SCF-cycle:                        1761.745     0.133   0.0% |
 Davidson:                        1375.096   308.946  17.4% |------|
  Apply hamiltonian:                33.046    33.046   1.9% ||
  Subspace diag:                   365.552     0.028   0.0% |
   calc_h_matrix:                  144.174   111.367   6.3% |--|
    Apply hamiltonian:              32.806    32.806   1.8% ||
   diagonalize:                      1.852     1.852   0.1% |
   rotate_psi:                     219.498   219.498  12.4% |----|
  calc. matrices:                  440.526   406.966  22.9% |--------|
   Apply hamiltonian:               33.560    33.560   1.9% ||
  diagonalize:                       6.529     6.529   0.4% |
  rotate_psi:                      220.495   220.495  12.4% |----|
 Density:                            7.679     0.004   0.0% |
  Atomic density matrices:           0.644     0.644   0.0% |
  Mix:                               4.052     4.052   0.2% |
  Multipole moments:                 0.160     0.160   0.0% |
  Pseudo density:                    2.818     2.797   0.2% |
   Symmetrize density:               0.020     0.020   0.0% |
 Hamiltonian:                      376.966     0.020   0.0% |
  Atomic:                          259.807     0.584   0.0% |
   XC Correction:                  259.222   259.222  14.6% |-----|
  Calculate atomic Hamiltonians:     2.280     2.280   0.1% |
  Communicate:                       0.001     0.001   0.0% |
  Hartree integrate/restrict:        1.129     1.129   0.1% |
  Poisson:                          60.312    60.312   3.4% ||
  XC 3D grid:                       52.931    52.931   3.0% ||
  vbar:                              0.485     0.485   0.0% |
 Orthonormalize:                     1.871     0.000   0.0% |
  calc_s_matrix:                     0.442     0.442   0.0% |
  inverse-cholesky:                  0.002     0.002   0.0% |
  projections:                       0.715     0.715   0.0% |
  rotate_psi_s:                      0.712     0.712   0.0% |
Set symmetry:                        0.001     0.001   0.0% |
Other:                               1.053     1.053   0.1% |
-----------------------------------------------------------
Total:                                      1776.982 100.0%

Memory usage: 1.08 GiB
Date: Sat Mar 30 01:07:37 2019
