
  ___ ___ ___ _ _ _  
 |   |   |_  | | | | 
 | | | | | . | | | | 
 |__ |  _|___|_____|  1.4.0
 |___|_|             

User:   murakami@tssm1.eng.shizuoka.ac.jp
Date:   Fri Mar 29 19:04:09 2019
Arch:   x86_64
Pid:    31289
Python: 3.6.5
gpaw:   /home/murakami/.local/lib/python3.6/site-packages/gpaw
_gpaw:  /home/murakami/.local/lib/python3.6/site-packages/
        _gpaw.cpython-36m-x86_64-linux-gnu.so
ase:    /home/murakami/.local/lib/python3.6/site-packages/ase (version 3.16.2)
numpy:  /home/murakami/.local/lib/python3.6/site-packages/numpy (version 1.15.2)
scipy:  /home/murakami/.local/lib/python3.6/site-packages/scipy (version 1.1.0)
units:  Angstrom and eV
cores:  1

Input parameters:
  kpts: {size: (1, 1, 1)}
  maxiter: 300
  xc: PBE

System changes: positions, numbers, cell, pbc, initial_charges, initial_magmoms 

Initialize ...

Fe-setup:
  name: Iron
  id: 37abbd8d6c3c35915a9b583b742da910
  Z: 26
  valence: 8
  core: 18
  charge: 0.0
  file: /home/murakami/Public/gpaw-setups-0.9.20000/Fe.PBE.gz
  cutoffs: 1.06(comp), 2.06(filt), 2.67(core), lmax=2
  valence states:
                energy  radius
    4s(2.00)    -5.291   1.164
    4p(0.00)    -1.326   1.058
    3d(6.00)    -7.505   1.058
    *s          21.920   1.164
    *p          25.885   1.058
    *d          19.706   1.058

  Using partial waves for Fe as LCAO basis

O-setup:
  name: Oxygen
  id: 32ecd46bf208036f09c70b0ec9a88b78
  Z: 8
  valence: 6
  core: 2
  charge: 0.0
  file: /home/murakami/Public/gpaw-setups-0.9.20000/O.PBE.gz
  cutoffs: 0.67(comp), 1.17(filt), 0.83(core), lmax=2
  valence states:
                energy  radius
    2s(2.00)   -23.961   0.688
    2p(4.00)    -9.029   0.598
    *s           3.251   0.688
    *p          18.182   0.598
    *d           0.000   0.619

  Using partial waves for O as LCAO basis

F-setup:
  name: Fluorine
  id: 9cd46ba2a61e170ad72278be75b55cc0
  Z: 9
  valence: 7
  core: 2
  charge: 0.0
  file: /home/murakami/Public/gpaw-setups-0.9.20000/F.PBE.gz
  cutoffs: 0.64(comp), 1.14(filt), 0.74(core), lmax=2
  valence states:
                energy  radius
    2s(2.00)   -29.898   0.635
    2p(5.00)   -11.110   0.635
    *s          -2.687   0.635
    *p          16.102   0.635
    *d           0.000   0.635

  Using partial waves for F as LCAO basis

Reference energy: -479224.937077

Spin-paired calculation

Occupation numbers:
  Fermi-Dirac: width=0.1000 eV

Convergence criteria:
  Maximum total energy change: 0.0005 eV / electron
  Maximum integral of absolute density change: 0.0001 electrons
  Maximum integral of absolute eigenstate change: 4e-08 eV^2
  Maximum number of iterations: 300

Symmetries present (total): 1

  ( 1  0  0)
  ( 0  1  0)
  ( 0  0  1)

1 k-point (Gamma)
1 k-point in the irreducible part of the Brillouin zone
       k-points in crystal coordinates                weights
   0:     0.00000000    0.00000000    0.00000000          1/1

Wave functions: Uniform real-space grid
  Kinetic energy operator: 6*3+1=19 point O(h^6) finite-difference Laplacian
  ScaLapack parameters: grid=1x1, blocksize=None 

Eigensolver
   Davidson(niter=1, smin=None, normalize=True) 

Densities:
  Coarse grid: 16*104*32 grid
  Fine grid: 32*208*64 grid
  Total Charge: 0.000000 

Density mixing:
  Method: separate
  Backend: pulay
  Linear mixing parameter: 0.05
  Mixing with 5 old densities
  Damping of long wave oscillations: 50 

Hamiltonian:
  XC and Coulomb potentials evaluated on a 32*208*64 grid
  Using the PBE Exchange-Correlation functional
  Interpolation: tri-quintic (5. degree polynomial)
  Poisson solver: Jacobi solver with 5 multi-grid levels
    Coarsest grid: 2 x 13 x 4 points
    Stencil: 6*3+1=19 point O(h^6) finite-difference Laplacian
    Max iterations: 1000
    Tolerance: 2.000000e-10 

Memory estimate:
  Process memory now: 1103.97 MiB
  Calculator: 269.53 MiB
    Density: 69.97 MiB
      Arrays: 10.56 MiB
      Localized functions: 55.35 MiB
      Mixer: 4.06 MiB
    Hamiltonian: 19.00 MiB
      Arrays: 6.91 MiB
      XC: 0.00 MiB
      Poisson: 7.89 MiB
      vbar: 4.20 MiB
    Wavefunctions: 180.56 MiB
      Arrays psit_nG: 82.88 MiB
      Eigensolver: 88.09 MiB
      Projections: 0.82 MiB
      Projectors: 8.78 MiB

Total number of cores used: 1

Number of atoms: 36
Number of atomic orbitals: 204
Number of bands in calculation: 204
Bands to converge: occupied states only
Number of valence electrons: 262

... initialized

Initializing position-dependent things.

Density initialized from atomic densities
Creating initial wave functions:
  204 bands from LCAO basis set

              .-------.  
             /|  F    |  
            / |       |  
           /  |       |  
          / F |       |  
         /    |  F    |  
        /   Fe|       |  
       /  FFe |F      |  
      /O      Fe------.  
     /      F/       /   
    /  Fe F F   Fe  /    
   / F     F   F   /     
  /F  F   Fe      /      
 *     F Fe  F   /       
 |   F  F       /        
 F Fe  /       /         
 |    F   F   /          
 | F Fe F    /           
 O  /       /            
 | /   Fe  /             
 |/       /              
 Fe------*               

Positions:
   0 Fe     0.000000    3.425973    3.405553    ( 0.0000,  0.0000,  0.0000)
   1 Fe     0.000000   17.123411    3.405553    ( 0.0000,  0.0000,  0.0000)
   2 Fe     0.000000   13.700665    0.009448    ( 0.0000,  0.0000,  0.0000)
   3 Fe     0.028373    6.848719    0.009448    ( 0.0000,  0.0000,  0.0000)
   4 Fe     1.626314    3.411629    0.000027    ( 0.0000,  0.0000,  0.0000)
   5 Fe     1.626314   17.137755    0.000027    ( 0.0000,  0.0000,  0.0000)
   6 Fe     1.626314   13.686321    3.396133    ( 0.0000,  0.0000,  0.0000)
   7 Fe     1.626314    6.725012    3.396133    ( 0.0000,  0.0000,  0.0000)
   8 Fe     0.000000    0.000000    0.082607    ( 0.0000,  0.0000,  0.0000)
   9 Fe     0.000000   10.274692    3.491529    ( 0.0000,  0.0000,  0.0000)
  10 Fe     1.626314    0.000000    3.208640    ( 0.0000,  0.0000,  0.0000)
  11 Fe     1.626314   10.274692    6.604746    ( 0.0000,  0.0000,  0.0000)
  12 O      0.000000    0.000000    2.135213    ( 0.0000,  0.0000,  0.0000)
  13 O      0.000000   10.274692    5.597420    ( 0.0000,  0.0000,  0.0000)
  14 F      0.000000    3.551920    1.380850    ( 0.0000,  0.0000,  0.0000)
  15 F      0.000000   17.093615    1.380850    ( 0.0000,  0.0000,  0.0000)
  16 F      0.000000   13.730461    4.776955    ( 0.0000,  0.0000,  0.0000)
  17 F      0.000000    6.818923    4.776955    ( 0.0000,  0.0000,  0.0000)
  18 F      0.000000    3.460146    5.429327    ( 0.0000,  0.0000,  0.0000)
  19 F      0.000000   16.962818    5.429327    ( 0.0000,  0.0000,  0.0000)
  20 F      0.000000   13.734838    2.033221    ( 0.0000,  0.0000,  0.0000)
  21 F      0.000000    6.814546    2.033221    ( 0.0000,  0.0000,  0.0000)
  22 F      1.626314    1.558157    6.767331    ( 0.0000,  0.0000,  0.0000)
  23 F      1.634751   19.144382    6.767331    ( 0.0000,  0.0000,  0.0000)
  24 F      1.626314   11.679694    3.371226    ( 0.0000,  0.0000,  0.0000)
  25 F      1.626314    8.869690    3.371226    ( 0.0000,  0.0000,  0.0000)
  26 F      1.633896    2.017621    3.434678    ( 0.0000,  0.0000,  0.0000)
  27 F      1.626314   18.531763    3.434678    ( 0.0000,  0.0000,  0.0000)
  28 F      1.626314   12.090621    0.038573    ( 0.0000,  0.0000,  0.0000)
  29 F      1.626314    8.309000    0.038573    ( 0.0000,  0.0000,  0.0000)
  30 F      1.626314    4.809789    3.360365    ( 0.0000,  0.0000,  0.0000)
  31 F      1.626314   15.739595    3.406464    ( 0.0000,  0.0000,  0.0000)
  32 F      1.626314   15.084481    0.010358    ( 0.0000,  0.0000,  0.0000)
  33 F      1.626314    5.464903    0.043728    ( 0.0000,  0.0000,  0.0000)
  34 F      0.000000    0.000000    4.718827    ( 0.0000,  0.0000,  0.0000)
  35 F      0.000000   10.274692    1.322722    ( 0.0000,  0.0000,  0.0000)

Unit cell:
           periodic     x           y           z      points  spacing
  1. axis:    yes    3.252628    0.000000    0.000000    16     0.2033
  2. axis:    yes    0.000000   20.549384    0.000000   104     0.1976
  3. axis:    yes    0.000000    0.000000    6.792211    32     0.2123

  Lengths:   3.252628  20.549384   6.792211
  Angles:   90.000000  90.000000  90.000000

Effective grid spacing dv^(1/3) = 0.2043

                     log10-error:    total        iterations:
           time      wfs    density  energy       fermi  poisson
iter:   1  19:04:40  +1.74   +inf  -212.844834    3      19     
iter:   2  19:04:51  +0.21   +inf  -213.766119    3             
iter:   3  19:05:03  -0.36   +inf  -214.032268    2             
iter:   4  19:05:18  -0.61  -1.12  -212.618184    3      10     
iter:   5  19:05:33  -0.43  -1.15  -254.358355    35     15     
iter:   6  19:05:48  -0.54  -1.04  -229.605702    4      15     
iter:   7  19:06:03  -0.45  -1.09  -276.042485    35     15     
iter:   8  19:06:19  -0.46  -1.03  -230.256868    36     15     
iter:   9  19:06:34  -0.42  -1.19  -226.244419    3      15     
iter:  10  19:06:48  -0.61  -1.19  -215.465879    4      12     
iter:  11  19:07:03  -0.63  -1.27  -212.806576    3      13     
iter:  12  19:07:21  -1.01  -1.33  -215.536166    2      12     
iter:  13  19:07:36  -1.36  -1.23  -209.004016    3      13     
iter:  14  19:07:48  -1.43  -1.35  -206.887902    3      11     
iter:  15  19:08:01  -1.66  -1.43  -205.985964    3      10     
iter:  16  19:08:14  -1.43  -1.45  -230.638432    32     14     
iter:  17  19:08:25  -1.09  -1.15  -207.765699    33     14     
iter:  18  19:08:36  -1.43  -1.40  -215.789852    3      13     
iter:  19  19:08:47  -1.37  -1.26  -206.960624    3      13     
iter:  20  19:08:57  -1.68  -1.45  -205.821840    3      10     
iter:  21  19:09:09  -2.08  -1.50  -206.088828    3      9      
iter:  22  19:09:20  -1.83  -1.49  -206.696598    3      10     
iter:  23  19:09:30  -1.81  -1.50  -206.436161    3      11     
iter:  24  19:09:41  -1.47  -1.53  -213.515153    4      11     
iter:  25  19:09:52  -1.14  -1.36  -206.986295    3      12     
iter:  26  19:10:02  -1.45  -1.54  -207.289291    3      11     
iter:  27  19:10:14  -1.67  -1.51  -207.962708    2      12     
iter:  28  19:10:25  -1.81  -1.49  -206.323217    3      12     
iter:  29  19:10:35  -2.10  -1.58  -205.437516    3      10     
iter:  30  19:10:47  -2.04  -1.63  -209.997050    3      12     
iter:  31  19:10:58  -1.58  -1.44  -206.181720    3      12     
iter:  32  19:11:09  -1.76  -1.59  -207.415443    3      9      
iter:  33  19:11:19  -1.72  -1.54  -208.017024    2      12     
iter:  34  19:11:30  -1.67  -1.52  -210.893223    3      13     
iter:  35  19:11:41  -1.56  -1.40  -205.828418    4      12     
iter:  36  19:11:53  -2.07  -1.64  -206.110279    3      9      
iter:  37  19:12:04  -1.88  -1.65  -206.335613    3      8      
iter:  38  19:12:15  -1.93  -1.64  -207.861975    3      12     
iter:  39  19:12:26  -1.74  -1.55  -206.853338    2      11     
iter:  40  19:12:38  -1.38  -1.61  -239.004321    4      14     
iter:  41  19:12:48  -1.06  -1.20  -206.086547    4      14     
iter:  42  19:12:59  -1.81  -1.68  -205.696085    3      9      
iter:  43  19:13:09  -2.30  -1.71  -205.701023    2      6      
iter:  44  19:13:20  -2.22  -1.72  -207.932634    3      11     
iter:  45  19:13:31  -1.85  -1.58  -206.133893    3      11     
iter:  46  19:13:42  -1.45  -1.69  -240.791537    4      14     
iter:  47  19:13:53  -1.10  -1.20  -205.996048    3      14     
iter:  48  19:14:03  -1.81  -1.74  -205.947327    2      9      
iter:  49  19:14:14  -2.09  -1.75  -205.715473    3      8      
iter:  50  19:14:25  -2.08  -1.77  -207.788428    3      11     
iter:  51  19:14:35  -1.82  -1.63  -206.077277    3      12     
iter:  52  19:14:46  -1.51  -1.74  -226.131782    4      13     
iter:  53  19:14:57  -1.33  -1.26  -206.477585    4      14     
iter:  54  19:15:08  -1.91  -1.73  -205.577727    2      10     
iter:  55  19:15:19  -2.16  -1.89  -205.761511    2      9      
iter:  56  19:15:30  -2.10  -1.82  -206.309299    3      9      
iter:  57  19:15:41  -2.00  -1.79  -205.987496    3      9      
iter:  58  19:15:52  -2.03  -1.81  -208.558257    3      12     
iter:  59  19:16:04  -1.81  -1.61  -207.350622    3      12     
iter:  60  19:16:17  -2.03  -1.67  -205.758859    2      11     
iter:  61  19:16:30  -2.33  -1.88  -205.573360    3      7      
iter:  62  19:16:42  -2.60  -1.91  -206.091707    3      8      
iter:  63  19:16:53  -2.16  -1.82  -206.782207    3      10     
iter:  64  19:17:03  -2.00  -1.74  -207.615695    2      12     
iter:  65  19:17:14  -1.67  -1.69  -218.834083    3      13     
iter:  66  19:17:25  -1.44  -1.35  -205.864554    3      13     
iter:  67  19:17:36  -2.16  -1.88  -205.709557    2      6      
iter:  68  19:17:47  -2.86  -1.91  -205.748896    2      5      
iter:  69  19:17:58  -2.07  -1.91  -208.735740    3      11     
iter:  70  19:18:08  -1.73  -1.60  -207.289034    3      12     
iter:  71  19:18:19  -1.65  -1.71  -221.376023    4      13     
iter:  72  19:18:30  -1.39  -1.32  -205.848279    3      13     
iter:  73  19:18:41  -2.12  -1.90  -205.709756    2      6      
iter:  74  19:18:52  -2.76  -1.94  -205.651444    2      5      
iter:  75  19:19:02  -2.20  -1.95  -207.606255    3      11     
iter:  76  19:19:13  -1.95  -1.69  -205.985334    2      12     
iter:  77  19:19:25  -1.94  -1.90  -211.963113    3      12     
iter:  78  19:19:36  -1.65  -1.47  -205.581728    2      12     
iter:  79  19:19:47  -2.32  -2.02  -205.644156    2      7      
iter:  80  19:19:59  -2.78  -2.01  -205.536423    2      7      
iter:  81  19:20:11  -2.48  -2.04  -206.329608    3      10     
iter:  82  19:20:21  -2.27  -1.86  -205.587896    2      10     
iter:  83  19:20:32  -2.05  -2.05  -211.878736    3      12     
iter:  84  19:20:44  -1.70  -1.49  -205.661262    3      12     
iter:  85  19:20:56  -2.29  -2.04  -205.471592    3      8      
iter:  86  19:21:08  -2.54  -2.17  -205.652687    2      9      
iter:  87  19:21:20  -2.44  -2.03  -205.653729    3      8      
iter:  88  19:21:32  -2.40  -2.08  -205.538448    2      6      
iter:  89  19:21:44  -2.25  -2.11  -207.383426    3      11     
iter:  90  19:21:56  -2.14  -1.77  -205.438478    2      11     
iter:  91  19:22:06  -2.94  -2.19  -205.387719    2      6      
iter:  92  19:22:17  -3.26  -2.25  -205.384917    2      5      
iter:  93  19:22:27  -3.11  -2.26  -205.487811    2      7      
iter:  94  19:22:38  -2.72  -2.20  -205.525657    2      9      
iter:  95  19:22:48  -2.33  -2.18  -206.301510    2      9      
iter:  96  19:23:00  -2.11  -1.95  -206.804936    2      11     
iter:  97  19:23:11  -2.29  -1.84  -205.506348    2      11     
iter:  98  19:23:21  -2.68  -2.22  -205.384413    2      8      
iter:  99  19:23:32  -3.34  -2.34  -205.370783    2      6      
iter: 100  19:23:44  -3.03  -2.39  -205.440423    2      7      
iter: 101  19:23:54  -2.68  -2.35  -205.882770    2      10     
iter: 102  19:24:05  -2.51  -2.06  -205.536567    2      9      
iter: 103  19:24:15  -2.84  -2.28  -205.392978    2      9      
iter: 104  19:24:26  -2.68  -2.47  -205.604183    2      9      
iter: 105  19:24:38  -2.71  -2.23  -205.343579    2      8      
iter: 106  19:24:48  -3.74  -2.67  -205.332240    2      4      
iter: 107  19:24:59  -4.09  -2.72  -205.347609    2      6      
iter: 108  19:25:09  -3.73  -2.64  -205.348298    2      6      
iter: 109  19:25:20  -3.87  -2.61  -205.339952    2      7      
iter: 110  19:25:30  -3.72  -2.69  -205.337963    2      6      
iter: 111  19:25:41  -3.65  -2.67  -205.338292    2      6      
iter: 112  19:25:52  -3.57  -2.75  -205.324453    2      5      
iter: 113  19:26:02  -3.75  -2.75  -205.336844    2      5      
iter: 114  19:26:13  -4.07  -2.75  -205.328700    2      5      
iter: 115  19:26:23  -4.46  -2.80  -205.322491    2      5      
iter: 116  19:26:34  -4.48  -2.85  -205.325886    2      5      
iter: 117  19:26:44  -4.36  -2.85  -205.321380    2      4      
iter: 118  19:26:55  -4.03  -2.90  -205.331246    2      5      
iter: 119  19:27:06  -3.63  -2.81  -205.378055    2      7      
iter: 120  19:27:17  -3.55  -2.51  -205.343854    2      7      
iter: 121  19:27:28  -3.83  -2.68  -205.341125    2      7      
iter: 122  19:27:39  -3.94  -2.72  -205.330345    2      6      
iter: 123  19:27:50  -4.26  -2.87  -205.321101    2      4      
iter: 124  19:28:00  -5.17  -2.99  -205.320987    2      4      
iter: 125  19:28:11  -4.65  -3.01  -205.320317    2      5      
iter: 126  19:28:22  -4.06  -3.04  -205.331138    2      5      
iter: 127  19:28:33  -3.87  -2.89  -205.380743    2      7      
iter: 128  19:28:44  -3.68  -2.54  -205.351459    2      7      
iter: 129  19:28:55  -3.76  -2.65  -205.325436    2      6      
iter: 130  19:29:05  -3.92  -2.97  -205.318928    2      5      
iter: 131  19:29:16  -4.44  -3.07  -205.322185    1      4      
iter: 132  19:29:27  -4.57  -3.11  -205.319629    2      4      
iter: 133  19:29:38  -4.80  -3.18  -205.324547    2      5      
iter: 134  19:29:48  -4.41  -2.96  -205.329134    2      6      
iter: 135  19:29:59  -4.28  -2.85  -205.319714    2      5      
iter: 136  19:30:10  -4.64  -3.12  -205.319952    2      4      
iter: 137  19:30:21  -5.07  -3.22  -205.317809    2      4      
iter: 138  19:30:32  -4.97  -3.22  -205.320177    2      4      
iter: 139  19:30:42  -5.33  -3.23  -205.320375    2      4      
iter: 140  19:30:53  -4.99  -3.21  -205.324704    2      5      
iter: 141  19:31:04  -4.50  -3.03  -205.322692    2      5      
iter: 142  19:31:15  -4.31  -3.14  -205.319737    2      5      
iter: 143  19:31:26  -4.52  -3.11  -205.323776    2      5      
iter: 144  19:31:36  -4.49  -3.21  -205.319480    2      4      
iter: 145  19:31:47  -4.77  -3.14  -205.317947    2      4      
iter: 146  19:31:58  -5.17  -3.34  -205.318773    2      4      
iter: 147  19:32:09  -5.12  -3.37  -205.317732    2      4      
iter: 148  19:32:19  -4.74  -3.45  -205.322229    2      4      
iter: 149  19:32:30  -4.77  -3.20  -205.319293    2      5      
iter: 150  19:32:41  -4.98  -3.31  -205.317758    2      4      
iter: 151  19:32:52  -4.65  -3.47  -205.327570    2      5      
iter: 152  19:33:03  -4.59  -3.00  -205.320142    2      5      
iter: 153  19:33:13  -5.13  -3.51  -205.318619    2      3      
iter: 154  19:33:24  -5.79  -3.67  -205.318421    2      2      
iter: 155  19:33:35  -6.27  -3.72  -205.318114    2      3      
iter: 156  19:33:46  -6.07  -3.72  -205.318526    1      3      
iter: 157  19:33:56  -5.94  -3.72  -205.318531    2      3      
iter: 158  19:34:07  -5.75  -3.61  -205.318840    2      3      
iter: 159  19:34:18  -5.39  -3.62  -205.318542    2      4      
iter: 160  19:34:29  -5.21  -3.69  -205.318143    2      4      
iter: 161  19:34:39  -5.48  -3.57  -205.319099    2      4      
iter: 162  19:34:50  -5.55  -3.69  -205.318016    2      3      
iter: 163  19:35:01  -5.90  -3.77  -205.318395    2      3      
iter: 164  19:35:11  -6.22  -3.81  -205.318113    2      3      
iter: 165  19:35:22  -6.36  -3.89  -205.317946    2      3      
iter: 166  19:35:33  -5.70  -3.98  -205.318968    2      3      
iter: 167  19:35:44  -5.69  -3.68  -205.318624    2      3      
iter: 168  19:35:54  -6.30  -3.90  -205.318332    1      2      
iter: 169  19:36:05  -6.21  -4.04  -205.318246    2      3      
iter: 170  19:36:16  -6.11  -3.78  -205.318200    2      3      
iter: 171  19:36:26  -7.03  -4.09  -205.318243    1      2      
iter: 172  19:36:37  -6.88  -4.12  -205.318278    2      2      
iter: 173  19:36:48  -6.30  -4.11  -205.318056    1      3      
iter: 174  19:36:58  -6.15  -4.02  -205.318284    1      3      
iter: 175  19:37:09  -6.16  -4.07  -205.318462    2      3      
iter: 176  19:37:20  -6.04  -3.75  -205.318409    2      3      
iter: 177  19:37:31  -6.62  -4.08  -205.318300    2      2      
iter: 178  19:37:41  -6.81  -4.21  -205.318226    1      2      
iter: 179  19:37:52  -6.81  -4.18  -205.318121    2      3      
iter: 180  19:38:03  -6.36  -4.22  -205.318244    2      3      
iter: 181  19:38:13  -6.42  -4.09  -205.318422    2      2      
iter: 182  19:38:24  -6.70  -4.18  -205.318321    2      2      
iter: 183  19:38:35  -6.82  -4.29  -205.318153    1      2      
iter: 184  19:38:45  -6.96  -4.30  -205.318276    1      2      
iter: 185  19:38:56  -7.66  -4.38  -205.318295    1      2      

Converged after 185 iterations.

Dipole moment: (-25.481630, -31.126190, -35.591756) |e|*Ang

Energy contributions relative to reference atoms: (reference = -479224.937077)

Kinetic:       +182.785233
Potential:     -185.394456
External:        +0.000000
XC:            -213.423551
Entropy (-ST):   -1.429920
Local:          +11.429440
--------------------------
Free energy:   -206.033255
Extrapolated:  -205.318295

Fermi level: 3.82839

 Band  Eigenvalues  Occupancy
    0    -20.98294    2.00000
    1    -20.78132    2.00000
    2    -20.65673    2.00000
    3    -20.62448    2.00000
    4    -20.60933    2.00000
    5    -20.39599    2.00000
    6    -20.36980    2.00000
    7    -20.36560    2.00000
    8    -20.34898    2.00000
    9    -20.32899    2.00000
   10    -20.32661    2.00000
   11    -20.29217    2.00000
   12    -20.28484    2.00000
   13    -20.24775    2.00000
   14    -20.24116    2.00000
   15    -20.20804    2.00000
   16    -20.20702    2.00000
   17    -20.17894    2.00000
   18    -20.07671    2.00000
   19    -19.83162    2.00000
   20    -19.07035    2.00000
   21    -18.80759    2.00000
   22    -14.60057    2.00000
   23    -14.52769    2.00000
   24     -4.33721    2.00000
   25     -4.21926    2.00000
   26     -4.01224    2.00000
   27     -3.94975    2.00000
   28     -3.82350    2.00000
   29     -3.56164    2.00000
   30     -3.50971    2.00000
   31     -3.37731    2.00000
   32     -3.33587    2.00000
   33     -3.14904    2.00000
   34     -2.86419    2.00000
   35     -2.73832    2.00000
   36     -2.71276    2.00000
   37     -2.66914    2.00000
   38     -2.61178    2.00000
   39     -2.59438    2.00000
   40     -2.49409    2.00000
   41     -2.42532    2.00000
   42     -2.41649    2.00000
   43     -2.41156    2.00000
   44     -2.39594    2.00000
   45     -2.38406    2.00000
   46     -2.37022    2.00000
   47     -2.32962    2.00000
   48     -2.32405    2.00000
   49     -2.30902    2.00000
   50     -2.26441    2.00000
   51     -2.24260    2.00000
   52     -2.22269    2.00000
   53     -2.20129    2.00000
   54     -2.17562    2.00000
   55     -2.16831    2.00000
   56     -2.12157    2.00000
   57     -2.10552    2.00000
   58     -2.08645    2.00000
   59     -2.07932    2.00000
   60     -1.96058    2.00000
   61     -1.92043    2.00000
   62     -1.84556    2.00000
   63     -1.75054    2.00000
   64     -1.74021    2.00000
   65     -1.67930    2.00000
   66     -1.63803    2.00000
   67     -1.63042    2.00000
   68     -1.55553    2.00000
   69     -1.51508    2.00000
   70     -1.48613    2.00000
   71     -1.38348    2.00000
   72     -1.37707    2.00000
   73     -1.36620    2.00000
   74     -1.33631    2.00000
   75     -1.33293    2.00000
   76     -1.27969    2.00000
   77     -1.27626    2.00000
   78     -1.24128    2.00000
   79     -1.23801    2.00000
   80     -1.19194    2.00000
   81     -1.13893    2.00000
   82     -1.12654    2.00000
   83     -1.02753    2.00000
   84     -0.94592    2.00000
   85     -0.93156    2.00000
   86     -0.77440    2.00000
   87     -0.73323    2.00000
   88     -0.16247    2.00000
   89     -0.14159    2.00000
   90      0.01517    2.00000
   91      0.01777    2.00000
   92      0.09948    2.00000
   93      0.22292    2.00000
   94      0.61737    2.00000
   95      0.77270    2.00000
   96      2.80127    1.99993
   97      2.84296    1.99989
   98      2.86450    1.99987
   99      2.88319    1.99984
  100      2.90798    1.99980
  101      2.95192    1.99969
  102      2.95481    1.99968
  103      2.96338    1.99965
  104      2.98209    1.99958
  105      2.99745    1.99951
  106      3.00455    1.99947
  107      3.04508    1.99921
  108      3.14671    1.99781
  109      3.14880    1.99777
  110      3.17224    1.99718
  111      3.20189    1.99620
  112      3.21383    1.99572
  113      3.22651    1.99515
  114      3.24882    1.99394
  115      3.25430    1.99360
  116      3.26121    1.99314
  117      3.29246    1.99064
  118      3.29439    1.99045
  119      3.30275    1.98963
  120      3.33178    1.98616
  121      3.35982    1.98172
  122      3.41022    1.96991
  123      3.47557    1.94296
  124      3.49684    1.92992
  125      3.57405    1.85426
  126      3.61087    1.79601
  127      3.63320    1.75131
  128      3.73169    1.44904
  129      3.76476    1.30785
  130      3.78752    1.20158
  131      3.84259    0.92913
  132      3.92414    0.55478
  133      3.94412    0.47834
  134      3.97306    0.38104
  135      4.08707    0.13999
  136      4.12686    0.09625
  137      4.16030    0.06985
  138      4.17179    0.06250
  139      4.22261    0.03807
  140      4.23629    0.03329
  141      4.24151    0.03162
  142      4.24445    0.03072
  143      4.28877    0.01983
  144      4.35053    0.01074
  145      4.38680    0.00749
  146      4.41240    0.00580
  147      4.42916    0.00491
  148      4.46531    0.00342
  149      4.46958    0.00328
  150      4.60151    0.00088
  151      4.94824    0.00003
  152      5.16029    0.00000
  153      5.34343    0.00000
  154      5.35103    0.00000
  155      5.37362    0.00000
  156      5.97000    0.00000
  157      6.46366    0.00000
  158      6.77937    0.00000
  159      8.08264    0.00000
  160      8.30989    0.00000
  161      9.48561    0.00000
  162      9.89800    0.00000
  163     10.12695    0.00000
  164     10.22921    0.00000
  165     10.29148    0.00000
  166     10.42021    0.00000
  167     10.45382    0.00000
  168     10.65959    0.00000
  169     10.71484    0.00000
  170     10.88967    0.00000
  171     11.10767    0.00000
  172     11.40661    0.00000
  173     11.45247    0.00000
  174     11.71816    0.00000
  175     12.05353    0.00000
  176     12.16858    0.00000
  177     12.90743    0.00000
  178     13.13981    0.00000
  179     13.60098    0.00000
  180     14.35505    0.00000
  181     14.43815    0.00000
  182     14.92654    0.00000
  183     15.04880    0.00000
  184     15.15740    0.00000
  185     15.43452    0.00000
  186     15.61266    0.00000
  187     15.96145    0.00000
  188     16.18239    0.00000
  189     16.25335    0.00000
  190     16.40878    0.00000
  191     16.46370    0.00000
  192     16.52497    0.00000
  193     16.84261    0.00000
  194     16.87599    0.00000
  195     16.90719    0.00000
  196     16.97647    0.00000
  197     17.05527    0.00000
  198     17.08743    0.00000
  199     17.13480    0.00000
  200     17.38301    0.00000
  201     17.38959    0.00000
  202     17.45198    0.00000
  203     17.61463    0.00000

Timing:                              incl.     excl.
-----------------------------------------------------------
Hamiltonian:                         3.456     0.000   0.0% |
 Atomic:                             1.686     0.004   0.0% |
  XC Correction:                     1.682     1.682   0.1% |
 Calculate atomic Hamiltonians:      0.016     0.016   0.0% |
 Communicate:                        0.000     0.000   0.0% |
 Hartree integrate/restrict:         0.012     0.012   0.0% |
 Initialize Hamiltonian:             0.000     0.000   0.0% |
 Poisson:                            1.363     1.363   0.1% |
 XC 3D grid:                         0.374     0.374   0.0% |
 vbar:                               0.005     0.005   0.0% |
LCAO initialization:                12.971     0.256   0.0% |
 LCAO eigensolver:                   1.447     0.000   0.0% |
  Calculate projections:             0.008     0.008   0.0% |
  DenseAtomicCorrection:             0.009     0.009   0.0% |
  Distribute overlap matrix:         0.000     0.000   0.0% |
  Orbital Layouts:                   0.027     0.027   0.0% |
  Potential matrix:                  1.402     1.402   0.1% |
 LCAO to grid:                      10.250    10.250   0.5% |
 Set positions (LCAO WFS):           1.018     0.000   0.0% |
  Basic WFS set positions:           0.001     0.001   0.0% |
  Basis functions set positions:     0.000     0.000   0.0% |
  TCI: Calculate S, T, P:            1.017     1.017   0.0% |
SCF-cycle:                        2069.410     0.148   0.0% |
 Davidson:                        1621.818   346.299  16.6% |------|
  Apply hamiltonian:                41.255    41.255   2.0% ||
  Subspace diag:                   437.332     0.032   0.0% |
   calc_h_matrix:                  173.754   133.015   6.4% |--|
    Apply hamiltonian:              40.739    40.739   2.0% ||
   diagonalize:                      2.107     2.107   0.1% |
   rotate_psi:                     261.438   261.438  12.5% |----|
  calc. matrices:                  525.157   484.169  23.2% |--------|
   Apply hamiltonian:               40.988    40.988   2.0% ||
  diagonalize:                       7.785     7.785   0.4% |
  rotate_psi:                      263.990   263.990  12.6% |----|
 Density:                            9.445     0.005   0.0% |
  Atomic density matrices:           0.675     0.675   0.0% |
  Mix:                               4.607     4.607   0.2% |
  Multipole moments:                 0.163     0.163   0.0% |
  Pseudo density:                    3.996     3.992   0.2% |
   Symmetrize density:               0.004     0.004   0.0% |
 Hamiltonian:                      435.958     0.022   0.0% |
  Atomic:                          299.241     0.655   0.0% |
   XC Correction:                  298.587   298.587  14.3% |-----|
  Calculate atomic Hamiltonians:     2.714     2.714   0.1% |
  Communicate:                       0.002     0.002   0.0% |
  Hartree integrate/restrict:        1.156     1.156   0.1% |
  Poisson:                          70.864    70.864   3.4% ||
  XC 3D grid:                       61.381    61.381   2.9% ||
  vbar:                              0.578     0.578   0.0% |
 Orthonormalize:                     2.042     0.000   0.0% |
  calc_s_matrix:                     0.451     0.451   0.0% |
  inverse-cholesky:                  0.002     0.002   0.0% |
  projections:                       0.877     0.877   0.0% |
  rotate_psi_s:                      0.712     0.712   0.0% |
Set symmetry:                        0.001     0.001   0.0% |
Other:                               1.215     1.215   0.1% |
-----------------------------------------------------------
Total:                                      2087.053 100.0%

Memory usage: 1.08 GiB
Date: Fri Mar 29 19:38:56 2019
