
  ___ ___ ___ _ _ _  
 |   |   |_  | | | | 
 | | | | | . | | | | 
 |__ |  _|___|_____|  1.4.0
 |___|_|             

User:   murakami@tssm1.eng.shizuoka.ac.jp
Date:   Sat Mar 30 06:42:49 2019
Arch:   x86_64
Pid:    31289
Python: 3.6.5
gpaw:   /home/murakami/.local/lib/python3.6/site-packages/gpaw
_gpaw:  /home/murakami/.local/lib/python3.6/site-packages/
        _gpaw.cpython-36m-x86_64-linux-gnu.so
ase:    /home/murakami/.local/lib/python3.6/site-packages/ase (version 3.16.2)
numpy:  /home/murakami/.local/lib/python3.6/site-packages/numpy (version 1.15.2)
scipy:  /home/murakami/.local/lib/python3.6/site-packages/scipy (version 1.1.0)
units:  Angstrom and eV
cores:  1

Input parameters:
  kpts: {size: (1, 1, 1)}
  maxiter: 300
  xc: PBE

System changes: positions, numbers, cell, pbc, initial_charges, initial_magmoms 

Initialize ...

Fe-setup:
  name: Iron
  id: 37abbd8d6c3c35915a9b583b742da910
  Z: 26
  valence: 8
  core: 18
  charge: 0.0
  file: /home/murakami/Public/gpaw-setups-0.9.20000/Fe.PBE.gz
  cutoffs: 1.06(comp), 2.06(filt), 2.67(core), lmax=2
  valence states:
                energy  radius
    4s(2.00)    -5.291   1.164
    4p(0.00)    -1.326   1.058
    3d(6.00)    -7.505   1.058
    *s          21.920   1.164
    *p          25.885   1.058
    *d          19.706   1.058

  Using partial waves for Fe as LCAO basis

O-setup:
  name: Oxygen
  id: 32ecd46bf208036f09c70b0ec9a88b78
  Z: 8
  valence: 6
  core: 2
  charge: 0.0
  file: /home/murakami/Public/gpaw-setups-0.9.20000/O.PBE.gz
  cutoffs: 0.67(comp), 1.17(filt), 0.83(core), lmax=2
  valence states:
                energy  radius
    2s(2.00)   -23.961   0.688
    2p(4.00)    -9.029   0.598
    *s           3.251   0.688
    *p          18.182   0.598
    *d           0.000   0.619

  Using partial waves for O as LCAO basis

F-setup:
  name: Fluorine
  id: 9cd46ba2a61e170ad72278be75b55cc0
  Z: 9
  valence: 7
  core: 2
  charge: 0.0
  file: /home/murakami/Public/gpaw-setups-0.9.20000/F.PBE.gz
  cutoffs: 0.64(comp), 1.14(filt), 0.74(core), lmax=2
  valence states:
                energy  radius
    2s(2.00)   -29.898   0.635
    2p(5.00)   -11.110   0.635
    *s          -2.687   0.635
    *p          16.102   0.635
    *d           0.000   0.635

  Using partial waves for F as LCAO basis

Reference energy: -479224.937077

Spin-paired calculation

Occupation numbers:
  Fermi-Dirac: width=0.1000 eV

Convergence criteria:
  Maximum total energy change: 0.0005 eV / electron
  Maximum integral of absolute density change: 0.0001 electrons
  Maximum integral of absolute eigenstate change: 4e-08 eV^2
  Maximum number of iterations: 300

Symmetries present (total): 1

  ( 1  0  0)
  ( 0  1  0)
  ( 0  0  1)

1 k-point (Gamma)
1 k-point in the irreducible part of the Brillouin zone
       k-points in crystal coordinates                weights
   0:     0.00000000    0.00000000    0.00000000          1/1

Wave functions: Uniform real-space grid
  Kinetic energy operator: 12*3+1=37 point O(h^6) finite-difference Laplacian
  ScaLapack parameters: grid=1x1, blocksize=None 

Eigensolver
   Davidson(niter=1, smin=None, normalize=True) 

Densities:
  Coarse grid: 16*104*32 grid
  Fine grid: 32*208*64 grid
  Total Charge: 0.000000 

Density mixing:
  Method: separate
  Backend: pulay
  Linear mixing parameter: 0.05
  Mixing with 5 old densities
  Damping of long wave oscillations: 50 

Hamiltonian:
  XC and Coulomb potentials evaluated on a 32*208*64 grid
  Using the PBE Exchange-Correlation functional
  Interpolation: tri-quintic (5. degree polynomial)
  Poisson solver: Jacobi solver with 5 multi-grid levels
    Coarsest grid: 2 x 13 x 4 points
    Stencil: 12*3+1=37 point O(h^6) finite-difference Laplacian
    Max iterations: 1000
    Tolerance: 2.000000e-10 

Memory estimate:
  Process memory now: 1103.97 MiB
  Calculator: 269.53 MiB
    Density: 69.97 MiB
      Arrays: 10.56 MiB
      Localized functions: 55.35 MiB
      Mixer: 4.06 MiB
    Hamiltonian: 19.00 MiB
      Arrays: 6.91 MiB
      XC: 0.00 MiB
      Poisson: 7.89 MiB
      vbar: 4.20 MiB
    Wavefunctions: 180.56 MiB
      Arrays psit_nG: 82.88 MiB
      Eigensolver: 88.09 MiB
      Projections: 0.82 MiB
      Projectors: 8.78 MiB

Total number of cores used: 1

Number of atoms: 36
Number of atomic orbitals: 204
Number of bands in calculation: 204
Bands to converge: occupied states only
Number of valence electrons: 262

... initialized

Initializing position-dependent things.

Density initialized from atomic densities
Creating initial wave functions:
  204 bands from LCAO basis set

                                
                                
                                
                                
                       F        
                                
                 F              
                                
                      F         
               F Fe             
                     F          
             O   F Fe           
                  F             
             FeF     Fe         
           FF    F  F           
         F     Fe               
             FF    F            
         FeF                    
       F     F  F               
           Fe                   
         F Fe  F                
       O     Fe                 
                                
       Fe                       
                                
                                
                                
                                

Positions:
   0 Fe    -0.020778    3.409922    3.405553    ( 0.0000,  0.0000,  0.0000)
   1 Fe    -0.151712   17.107361    3.405553    ( 0.0000,  0.0000,  0.0000)
   2 Fe    -0.121387   13.700620    0.009448    ( 0.0000,  0.0000,  0.0000)
   3 Fe    -0.060679    6.848675    0.009448    ( 0.0000,  0.0000,  0.0000)
   4 Fe     1.596087    3.411629    0.000027    ( 0.0000,  0.0000,  0.0000)
   5 Fe     1.474475   17.137755    0.000027    ( 0.0000,  0.0000,  0.0000)
   6 Fe     1.505054   13.670315    3.396133    ( 0.0000,  0.0000,  0.0000)
   7 Fe     1.565508    6.846747    3.461827    ( 0.0000,  0.0000,  0.0000)
   8 Fe     0.000000   -0.000389    0.082607    ( 0.0000,  0.0000,  0.0000)
   9 Fe    -0.091033   10.258297    3.478712    ( 0.0000,  0.0000,  0.0000)
  10 Fe     1.626314   -0.015122    3.208640    ( 0.0000,  0.0000,  0.0000)
  11 Fe     1.563019   10.243564    6.604746    ( 0.0000,  0.0000,  0.0000)
  12 O      0.000000   -0.010063    2.135213    ( 0.0000,  0.0000,  0.0000)
  13 O     -0.091033   10.248623    5.531319    ( 0.0000,  0.0000,  0.0000)
  14 F     -0.030618    3.449261    1.380850    ( 0.0000,  0.0000,  0.0000)
  15 F     -0.151448   17.087107    1.380850    ( 0.0000,  0.0000,  0.0000)
  16 F     -0.147415   13.707947    4.776955    ( 0.0000,  0.0000,  0.0000)
  17 F     -0.060415    6.796409    4.776955    ( 0.0000,  0.0000,  0.0000)
  18 F     -0.021084    3.434558    5.429327    ( 0.0000,  0.0000,  0.0000)
  19 F     -0.152397   17.175109    5.429327    ( 0.0000,  0.0000,  0.0000)
  20 F     -0.121690   13.725256    2.033221    ( 0.0000,  0.0000,  0.0000)
  21 F     -0.060376    6.804729    2.082954    ( 0.0000,  0.0000,  0.0000)
  22 F      1.613866    1.372842    6.823768    ( 0.0000,  0.0000,  0.0000)
  23 F      1.488663   19.112487    6.767331    ( 0.0000,  0.0000,  0.0000)
  24 F      1.522833   11.663806    3.371226    ( 0.0000,  0.0000,  0.0000)
  25 F      1.529176    8.853801    3.371226    ( 0.0000,  0.0000,  0.0000)
  26 F      1.608438    2.001433    3.434678    ( 0.0000,  0.0000,  0.0000)
  27 F      1.450362   18.515575    3.434678    ( 0.0000,  0.0000,  0.0000)
  28 F      1.541325   12.292131    0.038573    ( 0.0000,  0.0000,  0.0000)
  29 F      1.553157    8.256889    0.038573    ( 0.0000,  0.0000,  0.0000)
  30 F      1.566031    4.793734    3.406464    ( 0.0000,  0.0000,  0.0000)
  31 F      1.486862   15.723540    3.406464    ( 0.0000,  0.0000,  0.0000)
  32 F      1.492667   15.084432    0.010358    ( 0.0000,  0.0000,  0.0000)
  33 F      1.577895    5.464854    0.010358    ( 0.0000,  0.0000,  0.0000)
  34 F      0.000000   -0.022240    4.718827    ( 0.0000,  0.0000,  0.0000)
  35 F     -0.091033   10.268458    1.322722    ( 0.0000,  0.0000,  0.0000)

Unit cell:
           periodic     x           y           z      points  spacing
  1. axis:    yes    3.252628    0.000000    0.000000    16     0.2033
  2. axis:    yes   -0.182066   20.549384    0.000000   104     0.1976
  3. axis:    yes    0.000000   -0.032012    6.792211    32     0.2123

  Lengths:   3.252628  20.550191   6.792286
  Angles:   90.270025  90.000000  90.507623

Effective grid spacing dv^(1/3) = 0.2043

                     log10-error:    total        iterations:
           time      wfs    density  energy       fermi  poisson
iter:   1  06:43:15  +1.74   +inf  -213.832243    3      19     
iter:   2  06:43:24  +0.19   +inf  -214.727280    3             
iter:   3  06:43:33  -0.38   +inf  -214.984779    2             
iter:   4  06:43:44  -0.65  -1.12  -212.708922    3      9      
iter:   5  06:43:56  -0.26  -1.16  -228.538747    36     11     
iter:   6  06:44:08  -0.25  -1.15  -269.242188    4      15     
iter:   7  06:44:20  -0.32  -1.09  -235.669061    34     15     
iter:   8  06:44:33  -0.55  -1.16  -215.500434    3      14     
iter:   9  06:44:45  -0.49  -1.29  -246.467629    4      15     
iter:  10  06:44:57  -0.57  -1.15  -224.290696    4      14     
iter:  11  06:45:09  -0.92  -1.22  -209.804445    3      13     
iter:  12  06:45:21  -1.34  -1.38  -207.722673    3      12     
iter:  13  06:45:32  -1.57  -1.43  -206.949816    3      11     
iter:  14  06:45:44  -1.86  -1.46  -209.795077    3      11     
iter:  15  06:45:55  -1.49  -1.39  -209.321670    3      13     
iter:  16  06:46:07  -1.55  -1.40  -209.548317    3      12     
iter:  17  06:46:19  -1.56  -1.40  -208.710602    3      12     
iter:  18  06:46:30  -1.48  -1.44  -207.527417    2      10     
iter:  19  06:46:42  -1.79  -1.48  -207.161011    2      11     
iter:  20  06:46:53  -2.12  -1.49  -206.996143    3      10     
iter:  21  06:47:05  -2.03  -1.52  -206.890728    2      10     
iter:  22  06:47:16  -2.04  -1.53  -208.318117    3      11     
iter:  23  06:47:28  -1.64  -1.49  -207.383682    3      12     
iter:  24  06:47:40  -1.57  -1.56  -210.154648    3      12     
iter:  25  06:47:51  -1.60  -1.45  -214.241583    3      13     
iter:  26  06:48:03  -1.42  -1.37  -206.935588    3      12     
iter:  27  06:48:15  -1.59  -1.66  -210.923828    3      12     
iter:  28  06:48:27  -1.63  -1.45  -207.141976    3      12     
iter:  29  06:48:39  -2.18  -1.64  -206.601804    2      9      
iter:  30  06:48:50  -2.77  -1.69  -206.689148    2      6      
iter:  31  06:49:02  -2.12  -1.69  -210.700383    3      12     
iter:  32  06:49:14  -1.77  -1.47  -206.863474    3      12     
iter:  33  06:49:28  -1.89  -1.69  -212.367162    3      12     
iter:  34  06:49:42  -1.49  -1.47  -207.252143    3      12     
iter:  35  06:49:55  -1.67  -1.71  -207.354262    3      9      
iter:  36  06:50:08  -1.81  -1.71  -206.885573    3      7      
iter:  37  06:50:22  -2.03  -1.76  -208.342365    3      10     
iter:  38  06:50:36  -1.66  -1.69  -209.254994    2      12     
iter:  39  06:50:50  -1.59  -1.62  -215.734403    3      12     
iter:  40  06:51:02  -1.43  -1.37  -208.243638    3      13     
iter:  41  06:51:14  -1.82  -1.66  -206.550371    2      11     
iter:  42  06:51:25  -2.69  -1.88  -206.534975    2      6      
iter:  43  06:51:37  -2.06  -1.90  -209.725610    3      11     
iter:  44  06:51:48  -1.88  -1.59  -206.761668    3      11     
iter:  45  06:52:00  -2.00  -1.88  -210.520179    3      11     
iter:  46  06:52:12  -1.63  -1.56  -211.461328    3      12     
iter:  47  06:52:24  -1.71  -1.52  -206.979634    3      12     
iter:  48  06:52:35  -2.24  -1.85  -206.746634    2      6      
iter:  49  06:52:47  -2.01  -1.91  -210.553725    3      11     
iter:  50  06:52:58  -1.81  -1.56  -206.644461    3      12     
iter:  51  06:53:10  -2.28  -1.94  -208.108791    3      10     
iter:  52  06:53:21  -2.06  -1.75  -207.691959    2      11     
iter:  53  06:53:33  -2.10  -1.81  -206.795608    3      10     
iter:  54  06:53:45  -2.54  -1.96  -206.608471    2      6      
iter:  55  06:53:56  -1.77  -2.00  -213.556358    4      12     
iter:  56  06:54:08  -1.63  -1.47  -206.718437    3      12     
iter:  57  06:54:19  -2.27  -1.98  -207.578996    2      10     
iter:  58  06:54:32  -2.26  -1.83  -207.383867    2      11     
iter:  59  06:54:44  -2.38  -1.87  -206.583443    2      9      
iter:  60  06:54:55  -3.00  -2.06  -206.630235    2      6      
iter:  61  06:55:07  -2.13  -2.06  -208.494810    3      11     
iter:  62  06:55:18  -1.89  -1.77  -207.144924    3      10     
iter:  63  06:55:29  -2.27  -1.94  -207.073400    3      9      
iter:  64  06:55:41  -2.44  -1.94  -206.940035    2      10     
iter:  65  06:55:53  -2.54  -1.99  -206.561261    2      8      
iter:  66  06:56:05  -3.32  -2.14  -206.531578    2      6      
iter:  67  06:56:17  -2.32  -2.17  -207.939596    3      10     
iter:  68  06:56:29  -2.19  -1.82  -206.564164    2      11     
iter:  69  06:56:40  -2.71  -2.15  -206.725756    2      8      
iter:  70  06:56:52  -2.76  -2.10  -206.710619    2      9      
iter:  71  06:57:03  -2.57  -2.12  -206.841085    2      9      
iter:  72  06:57:15  -2.65  -2.06  -206.549204    3      9      
iter:  73  06:57:26  -2.52  -2.19  -207.570069    3      10     
iter:  74  06:57:38  -2.36  -1.89  -206.499468    2      10     
iter:  75  06:57:49  -3.32  -2.27  -206.498004    2      5      
iter:  76  06:58:00  -3.21  -2.27  -206.572098    2      7      
iter:  77  06:58:11  -2.89  -2.23  -206.801179    2      9      
iter:  78  06:58:23  -2.62  -2.10  -206.708773    3      9      
iter:  79  06:58:34  -2.40  -2.19  -207.125207    3      9      
iter:  80  06:58:46  -2.35  -2.02  -206.583004    2      9      
iter:  81  06:58:57  -2.83  -2.26  -206.479830    2      7      
iter:  82  06:59:08  -3.45  -2.39  -206.514775    2      6      
iter:  83  06:59:19  -3.04  -2.38  -206.834367    3      9      
iter:  84  06:59:31  -2.93  -2.11  -206.474668    2      9      
iter:  85  06:59:42  -2.80  -2.44  -206.907267    3      9      
iter:  86  06:59:54  -2.73  -2.09  -206.510569    2      9      
iter:  87  07:00:05  -3.13  -2.44  -206.540001    2      7      
iter:  88  07:00:17  -3.34  -2.32  -206.466780    2      7      
iter:  89  07:00:28  -3.33  -2.51  -206.522523    2      7      
iter:  90  07:00:40  -3.13  -2.38  -206.500631    2      6      
iter:  91  07:00:51  -3.39  -2.46  -206.592860    2      8      
iter:  92  07:01:04  -3.24  -2.30  -206.494399    2      7      
iter:  93  07:01:17  -3.37  -2.48  -206.524768    2      6      
iter:  94  07:01:30  -3.50  -2.38  -206.476915    2      7      
iter:  95  07:01:43  -4.00  -2.55  -206.483472    2      6      
iter:  96  07:01:57  -3.26  -2.60  -206.521942    2      6      
iter:  97  07:02:10  -3.20  -2.42  -206.489734    2      7      
iter:  98  07:02:24  -3.21  -2.61  -206.549804    2      7      
iter:  99  07:02:37  -3.31  -2.51  -206.476216    2      8      
iter: 100  07:02:51  -3.26  -2.80  -206.535569    2      8      
iter: 101  07:03:03  -3.33  -2.48  -206.498304    2      8      
iter: 102  07:03:15  -3.74  -2.69  -206.458025    2      6      
iter: 103  07:03:26  -4.42  -3.14  -206.458490    2      4      
iter: 104  07:03:37  -5.08  -3.25  -206.458578    2      4      
iter: 105  07:03:48  -4.77  -3.26  -206.463885    2      5      
iter: 106  07:03:59  -4.38  -3.04  -206.461709    2      4      
iter: 107  07:04:10  -4.46  -3.06  -206.462711    2      5      
iter: 108  07:04:21  -4.63  -3.21  -206.457034    2      5      
iter: 109  07:04:32  -4.42  -3.41  -206.461796    2      5      
iter: 110  07:04:44  -4.75  -3.35  -206.459820    2      4      
iter: 111  07:04:55  -5.53  -3.48  -206.459024    2      4      
iter: 112  07:05:06  -5.48  -3.61  -206.459886    2      3      
iter: 113  07:05:17  -5.30  -3.61  -206.458411    2      3      
iter: 114  07:05:28  -5.53  -3.50  -206.459151    2      4      
iter: 115  07:05:39  -5.59  -3.86  -206.457696    2      3      
iter: 116  07:05:50  -5.29  -3.72  -206.458674    2      4      
iter: 117  07:06:01  -5.39  -3.41  -206.458762    2      3      
iter: 118  07:06:12  -5.93  -3.97  -206.458350    2      3      
iter: 119  07:06:23  -6.10  -3.93  -206.458656    2      2      
iter: 120  07:06:34  -6.48  -4.07  -206.458364    2      2      
iter: 121  07:06:45  -6.80  -3.99  -206.458497    1      2      
iter: 122  07:06:56  -6.98  -4.08  -206.458560    1      2      
iter: 123  07:07:08  -6.31  -4.09  -206.459200    2      3      
iter: 124  07:07:19  -6.17  -3.87  -206.459173    2      3      
iter: 125  07:07:32  -6.34  -3.99  -206.458414    2      3      
iter: 126  07:07:46  -6.59  -4.16  -206.458816    2      2      
iter: 127  07:08:00  -6.82  -4.09  -206.458557    2      2      
iter: 128  07:08:16  -6.89  -4.12  -206.458575    2      2      
iter: 129  07:08:27  -6.42  -4.14  -206.458717    2      2      
iter: 130  07:08:38  -5.94  -4.00  -206.459456    2      3      
iter: 131  07:08:49  -6.03  -3.72  -206.458934    2      3      
iter: 132  07:09:01  -6.87  -4.27  -206.458615    2      2      
iter: 133  07:09:13  -6.94  -4.31  -206.458763    2      2      
iter: 134  07:09:25  -7.06  -4.18  -206.458704    2      2      
iter: 135  07:09:35  -7.42  -4.24  -206.458560    1      1      

Converged after 135 iterations.

Dipole moment: (-24.309487, -30.901052, -37.512162) |e|*Ang

Energy contributions relative to reference atoms: (reference = -479224.937077)

Kinetic:       +176.329081
Potential:     -180.599265
External:        +0.000000
XC:            -212.780229
Entropy (-ST):   -1.408170
Local:          +11.295938
--------------------------
Free energy:   -207.162645
Extrapolated:  -206.458560

Fermi level: 3.83799

 Band  Eigenvalues  Occupancy
    0    -20.83913    2.00000
    1    -20.77802    2.00000
    2    -20.68099    2.00000
    3    -20.63114    2.00000
    4    -20.42291    2.00000
    5    -20.40834    2.00000
    6    -20.37784    2.00000
    7    -20.37011    2.00000
    8    -20.34469    2.00000
    9    -20.34120    2.00000
   10    -20.33012    2.00000
   11    -20.29164    2.00000
   12    -20.27225    2.00000
   13    -20.21307    2.00000
   14    -20.20778    2.00000
   15    -20.18132    2.00000
   16    -20.16728    2.00000
   17    -20.16217    2.00000
   18    -20.13907    2.00000
   19    -20.11965    2.00000
   20    -19.01743    2.00000
   21    -19.01074    2.00000
   22    -14.50481    2.00000
   23    -14.48852    2.00000
   24     -4.28617    2.00000
   25     -4.19699    2.00000
   26     -4.03041    2.00000
   27     -3.95793    2.00000
   28     -3.72303    2.00000
   29     -3.52828    2.00000
   30     -3.49926    2.00000
   31     -3.44236    2.00000
   32     -3.33701    2.00000
   33     -3.16626    2.00000
   34     -2.73325    2.00000
   35     -2.69993    2.00000
   36     -2.62261    2.00000
   37     -2.58959    2.00000
   38     -2.57327    2.00000
   39     -2.47131    2.00000
   40     -2.46652    2.00000
   41     -2.41859    2.00000
   42     -2.40747    2.00000
   43     -2.40160    2.00000
   44     -2.39505    2.00000
   45     -2.36230    2.00000
   46     -2.33097    2.00000
   47     -2.31635    2.00000
   48     -2.31199    2.00000
   49     -2.29868    2.00000
   50     -2.25076    2.00000
   51     -2.22794    2.00000
   52     -2.21675    2.00000
   53     -2.19803    2.00000
   54     -2.19294    2.00000
   55     -2.18882    2.00000
   56     -2.18617    2.00000
   57     -2.17660    2.00000
   58     -2.13910    2.00000
   59     -2.11032    2.00000
   60     -2.02306    2.00000
   61     -1.94862    2.00000
   62     -1.92944    2.00000
   63     -1.78075    2.00000
   64     -1.71136    2.00000
   65     -1.69150    2.00000
   66     -1.64592    2.00000
   67     -1.61392    2.00000
   68     -1.58661    2.00000
   69     -1.57541    2.00000
   70     -1.53948    2.00000
   71     -1.47872    2.00000
   72     -1.38773    2.00000
   73     -1.34900    2.00000
   74     -1.32454    2.00000
   75     -1.29599    2.00000
   76     -1.29097    2.00000
   77     -1.24023    2.00000
   78     -1.21744    2.00000
   79     -1.20942    2.00000
   80     -1.17084    2.00000
   81     -1.11252    2.00000
   82     -1.10576    2.00000
   83     -1.06991    2.00000
   84     -0.96979    2.00000
   85     -0.92735    2.00000
   86     -0.76959    2.00000
   87     -0.71378    2.00000
   88     -0.11809    2.00000
   89     -0.11479    2.00000
   90     -0.10409    2.00000
   91     -0.06367    2.00000
   92      0.09255    2.00000
   93      0.09938    2.00000
   94      0.65276    2.00000
   95      0.67950    2.00000
   96      2.82254    1.99992
   97      2.85921    1.99989
   98      2.88903    1.99985
   99      2.90504    1.99982
  100      2.91722    1.99980
  101      2.95896    1.99970
  102      2.97095    1.99966
  103      2.97806    1.99963
  104      2.98718    1.99960
  105      3.00340    1.99953
  106      3.05631    1.99919
  107      3.06351    1.99913
  108      3.16244    1.99767
  109      3.16412    1.99763
  110      3.16739    1.99756
  111      3.19543    1.99677
  112      3.22745    1.99555
  113      3.22913    1.99547
  114      3.23076    1.99540
  115      3.23822    1.99504
  116      3.24735    1.99457
  117      3.29422    1.99134
  118      3.29735    1.99107
  119      3.31359    1.98950
  120      3.33888    1.98650
  121      3.34788    1.98523
  122      3.35656    1.98391
  123      3.46982    1.95088
  124      3.49512    1.93718
  125      3.56774    1.87435
  126      3.63556    1.76667
  127      3.65564    1.72199
  128      3.75370    1.39816
  129      3.76823    1.33533
  130      3.79673    1.20344
  131      3.85485    0.91590
  132      3.91271    0.64288
  133      3.95996    0.45599
  134      3.97643    0.40061
  135      4.08353    0.15809
  136      4.15200    0.08297
  137      4.20786    0.04832
  138      4.22526    0.04076
  139      4.23490    0.03708
  140      4.24428    0.03382
  141      4.24651    0.03308
  142      4.25745    0.02971
  143      4.34805    0.01211
  144      4.35824    0.01095
  145      4.44310    0.00470
  146      4.44668    0.00453
  147      4.44735    0.00450
  148      4.48689    0.00304
  149      4.48751    0.00302
  150      4.59811    0.00100
  151      4.96348    0.00003
  152      5.15039    0.00000
  153      5.27493    0.00000
  154      5.35650    0.00000
  155      5.35717    0.00000
  156      5.98462    0.00000
  157      6.45896    0.00000
  158      6.82456    0.00000
  159      8.12182    0.00000
  160      8.30952    0.00000
  161      9.62697    0.00000
  162      9.90848    0.00000
  163     10.04035    0.00000
  164     10.30199    0.00000
  165     10.37263    0.00000
  166     10.41016    0.00000
  167     10.43379    0.00000
  168     10.72372    0.00000
  169     10.76926    0.00000
  170     10.92145    0.00000
  171     11.02510    0.00000
  172     11.38661    0.00000
  173     11.52405    0.00000
  174     11.65266    0.00000
  175     12.04263    0.00000
  176     12.12115    0.00000
  177     12.83400    0.00000
  178     13.07015    0.00000
  179     13.42072    0.00000
  180     14.35135    0.00000
  181     14.53406    0.00000
  182     14.93025    0.00000
  183     14.99339    0.00000
  184     15.15869    0.00000
  185     15.47968    0.00000
  186     15.61358    0.00000
  187     15.81476    0.00000
  188     16.19612    0.00000
  189     16.26042    0.00000
  190     16.41183    0.00000
  191     16.44732    0.00000
  192     16.49849    0.00000
  193     16.84231    0.00000
  194     16.85904    0.00000
  195     16.90819    0.00000
  196     16.95389    0.00000
  197     16.99237    0.00000
  198     17.06937    0.00000
  199     17.10947    0.00000
  200     17.32600    0.00000
  201     17.40304    0.00000
  202     17.43892    0.00000
  203     17.51238    0.00000

Timing:                              incl.     excl.
-----------------------------------------------------------
Hamiltonian:                         3.639     0.000   0.0% |
 Atomic:                             1.650     0.004   0.0% |
  XC Correction:                     1.646     1.646   0.1% |
 Calculate atomic Hamiltonians:      0.015     0.015   0.0% |
 Communicate:                        0.000     0.000   0.0% |
 Hartree integrate/restrict:         0.010     0.010   0.0% |
 Initialize Hamiltonian:             0.000     0.000   0.0% |
 Poisson:                            1.632     1.632   0.1% |
 XC 3D grid:                         0.329     0.329   0.0% |
 vbar:                               0.003     0.003   0.0% |
LCAO initialization:                11.225     0.244   0.0% |
 LCAO eigensolver:                   1.436     0.000   0.0% |
  Calculate projections:             0.008     0.008   0.0% |
  DenseAtomicCorrection:             0.009     0.009   0.0% |
  Distribute overlap matrix:         0.000     0.000   0.0% |
  Orbital Layouts:                   0.026     0.026   0.0% |
  Potential matrix:                  1.393     1.393   0.1% |
 LCAO to grid:                       8.539     8.539   0.5% |
 Set positions (LCAO WFS):           1.006     0.000   0.0% |
  Basic WFS set positions:           0.001     0.001   0.0% |
  Basis functions set positions:     0.000     0.000   0.0% |
  TCI: Calculate S, T, P:            1.004     1.004   0.1% |
SCF-cycle:                        1590.610     0.108   0.0% |
 Davidson:                        1232.768   267.868  16.7% |------|
  Apply hamiltonian:                47.901    47.901   3.0% ||
  Subspace diag:                   328.819     0.023   0.0% |
   calc_h_matrix:                  142.086    94.350   5.9% |-|
    Apply hamiltonian:              47.737    47.737   3.0% ||
   diagonalize:                      1.526     1.526   0.1% |
   rotate_psi:                     185.184   185.184  11.5% |----|
  calc. matrices:                  394.877   346.847  21.6% |--------|
   Apply hamiltonian:               48.030    48.030   3.0% ||
  diagonalize:                       5.591     5.591   0.3% |
  rotate_psi:                      187.712   187.712  11.7% |----|
 Density:                            6.330     0.004   0.0% |
  Atomic density matrices:           0.481     0.481   0.0% |
  Mix:                               3.321     3.321   0.2% |
  Multipole moments:                 0.110     0.110   0.0% |
  Pseudo density:                    2.413     2.410   0.2% |
   Symmetrize density:               0.003     0.003   0.0% |
 Hamiltonian:                      349.658     0.016   0.0% |
  Atomic:                          216.072     0.473   0.0% |
   XC Correction:                  215.599   215.599  13.4% |----|
  Calculate atomic Hamiltonians:     1.953     1.953   0.1% |
  Communicate:                       0.001     0.001   0.0% |
  Hartree integrate/restrict:        0.864     0.864   0.1% |
  Poisson:                          85.844    85.844   5.3% |-|
  XC 3D grid:                       44.494    44.494   2.8% ||
  vbar:                              0.414     0.414   0.0% |
 Orthonormalize:                     1.746     0.000   0.0% |
  calc_s_matrix:                     0.442     0.442   0.0% |
  inverse-cholesky:                  0.002     0.002   0.0% |
  projections:                       0.601     0.601   0.0% |
  rotate_psi_s:                      0.701     0.701   0.0% |
Set symmetry:                        0.001     0.001   0.0% |
Other:                               1.014     1.014   0.1% |
-----------------------------------------------------------
Total:                                      1606.488 100.0%

Memory usage: 1.08 GiB
Date: Sat Mar 30 07:09:35 2019
