
  ___ ___ ___ _ _ _  
 |   |   |_  | | | | 
 | | | | | . | | | | 
 |__ |  _|___|_____|  1.4.0
 |___|_|             

User:   murakami@tssm1.eng.shizuoka.ac.jp
Date:   Sat Mar 30 03:13:39 2019
Arch:   x86_64
Pid:    31289
Python: 3.6.5
gpaw:   /home/murakami/.local/lib/python3.6/site-packages/gpaw
_gpaw:  /home/murakami/.local/lib/python3.6/site-packages/
        _gpaw.cpython-36m-x86_64-linux-gnu.so
ase:    /home/murakami/.local/lib/python3.6/site-packages/ase (version 3.16.2)
numpy:  /home/murakami/.local/lib/python3.6/site-packages/numpy (version 1.15.2)
scipy:  /home/murakami/.local/lib/python3.6/site-packages/scipy (version 1.1.0)
units:  Angstrom and eV
cores:  1

Input parameters:
  kpts: {size: (1, 1, 1)}
  maxiter: 300
  xc: PBE

System changes: positions, numbers, cell, pbc, initial_charges, initial_magmoms 

Initialize ...

Fe-setup:
  name: Iron
  id: 37abbd8d6c3c35915a9b583b742da910
  Z: 26
  valence: 8
  core: 18
  charge: 0.0
  file: /home/murakami/Public/gpaw-setups-0.9.20000/Fe.PBE.gz
  cutoffs: 1.06(comp), 2.06(filt), 2.67(core), lmax=2
  valence states:
                energy  radius
    4s(2.00)    -5.291   1.164
    4p(0.00)    -1.326   1.058
    3d(6.00)    -7.505   1.058
    *s          21.920   1.164
    *p          25.885   1.058
    *d          19.706   1.058

  Using partial waves for Fe as LCAO basis

O-setup:
  name: Oxygen
  id: 32ecd46bf208036f09c70b0ec9a88b78
  Z: 8
  valence: 6
  core: 2
  charge: 0.0
  file: /home/murakami/Public/gpaw-setups-0.9.20000/O.PBE.gz
  cutoffs: 0.67(comp), 1.17(filt), 0.83(core), lmax=2
  valence states:
                energy  radius
    2s(2.00)   -23.961   0.688
    2p(4.00)    -9.029   0.598
    *s           3.251   0.688
    *p          18.182   0.598
    *d           0.000   0.619

  Using partial waves for O as LCAO basis

F-setup:
  name: Fluorine
  id: 9cd46ba2a61e170ad72278be75b55cc0
  Z: 9
  valence: 7
  core: 2
  charge: 0.0
  file: /home/murakami/Public/gpaw-setups-0.9.20000/F.PBE.gz
  cutoffs: 0.64(comp), 1.14(filt), 0.74(core), lmax=2
  valence states:
                energy  radius
    2s(2.00)   -29.898   0.635
    2p(5.00)   -11.110   0.635
    *s          -2.687   0.635
    *p          16.102   0.635
    *d           0.000   0.635

  Using partial waves for F as LCAO basis

Reference energy: -479224.937077

Spin-paired calculation

Occupation numbers:
  Fermi-Dirac: width=0.1000 eV

Convergence criteria:
  Maximum total energy change: 0.0005 eV / electron
  Maximum integral of absolute density change: 0.0001 electrons
  Maximum integral of absolute eigenstate change: 4e-08 eV^2
  Maximum number of iterations: 300

Symmetries present (total): 1

  ( 1  0  0)
  ( 0  1  0)
  ( 0  0  1)

1 k-point (Gamma)
1 k-point in the irreducible part of the Brillouin zone
       k-points in crystal coordinates                weights
   0:     0.00000000    0.00000000    0.00000000          1/1

Wave functions: Uniform real-space grid
  Kinetic energy operator: 8*3+1=25 point O(h^6) finite-difference Laplacian
  ScaLapack parameters: grid=1x1, blocksize=None 

Eigensolver
   Davidson(niter=1, smin=None, normalize=True) 

Densities:
  Coarse grid: 16*104*36 grid
  Fine grid: 32*208*72 grid
  Total Charge: 0.000000 

Density mixing:
  Method: separate
  Backend: pulay
  Linear mixing parameter: 0.05
  Mixing with 5 old densities
  Damping of long wave oscillations: 50 

Hamiltonian:
  XC and Coulomb potentials evaluated on a 32*208*72 grid
  Using the PBE Exchange-Correlation functional
  Interpolation: tri-quintic (5. degree polynomial)
  Poisson solver: Jacobi solver with 4 multi-grid levels
    Coarsest grid: 4 x 26 x 9 points
    Warning: Coarse grid has more than 24 points.
             More multi-grid levels recommended.
    Stencil: 8*3+1=25 point O(h^6) finite-difference Laplacian
    Max iterations: 1000
    Tolerance: 2.000000e-10 

Memory estimate:
  Process memory now: 1103.97 MiB
  Calculator: 302.21 MiB
    Density: 78.32 MiB
      Arrays: 11.88 MiB
      Localized functions: 61.87 MiB
      Mixer: 4.57 MiB
    Hamiltonian: 21.32 MiB
      Arrays: 7.77 MiB
      XC: 0.00 MiB
      Poisson: 8.85 MiB
      vbar: 4.69 MiB
    Wavefunctions: 202.57 MiB
      Arrays psit_nG: 93.23 MiB
      Eigensolver: 98.70 MiB
      Projections: 0.82 MiB
      Projectors: 9.81 MiB

Total number of cores used: 1

Number of atoms: 36
Number of atomic orbitals: 204
Number of bands in calculation: 204
Bands to converge: occupied states only
Number of valence electrons: 262

... initialized

Initializing position-dependent things.

Density initialized from atomic densities
Creating initial wave functions:
  204 bands from LCAO basis set

                                
                                
                                
                                
                       F        
                                
                  F             
                                
                      F         
                FFee            
             O       F          
                  F Fe          
                  F             
           F Fe F     Fe        
            F    F  F           
         F     Fe               
             FF    F            
         FeF                    
       F    F   F               
           Fe                   
         F     F                
       O     Fe                 
                                
       Fe                       
                                
                                
                                
                                

Positions:
   0 Fe     0.000000    3.425973    3.424476    ( 0.0000,  0.0000,  0.0000)
   1 Fe     0.000000   17.123411    3.427532    ( 0.0000,  0.0000,  0.0000)
   2 Fe     0.000000   13.577430    0.068983    ( 0.0000,  0.0000,  0.0000)
   3 Fe     0.000000    6.999449    0.009509    ( 0.0000,  0.0000,  0.0000)
   4 Fe     1.626314    3.397978    0.000027    ( 0.0000,  0.0000,  0.0000)
   5 Fe     1.626314   17.124103    0.000027    ( 0.0000,  0.0000,  0.0000)
   6 Fe     1.626314   13.672670    3.418050    ( 0.0000,  0.0000,  0.0000)
   7 Fe     1.626314    6.849411    3.418050    ( 0.0000,  0.0000,  0.0000)
   8 Fe     0.000000    0.000000    0.083140    ( 0.0000,  0.0000,  0.0000)
   9 Fe     0.019529   10.274528    3.436973    ( 0.0000,  0.0000,  0.0000)
  10 Fe     1.626314   -0.013652    3.229348    ( 0.0000,  0.0000,  0.0000)
  11 Fe     1.626314   10.235148    6.647371    ( 0.0000,  0.0000,  0.0000)
  12 O      0.000000    0.014754    2.148993    ( 0.0000,  0.0000,  0.0000)
  13 O      0.019483   10.206469    5.567016    ( 0.0000,  0.0000,  0.0000)
  14 F      0.000000    3.455769    1.389761    ( 0.0000,  0.0000,  0.0000)
  15 F      0.000000   17.093615    1.329796    ( 0.0000,  0.0000,  0.0000)
  16 F      0.000000   13.810625    4.807784    ( 0.0000,  0.0000,  0.0000)
  17 F      0.000000    6.818923    4.807784    ( 0.0000,  0.0000,  0.0000)
  18 F      0.000000    3.460146    5.464366    ( 0.0000,  0.0000,  0.0000)
  19 F      0.000000   17.089238    5.464366    ( 0.0000,  0.0000,  0.0000)
  20 F      0.000000   13.734838    2.024741    ( 0.0000,  0.0000,  0.0000)
  21 F      0.000000    6.814546    2.046343    ( 0.0000,  0.0000,  0.0000)
  22 F      1.626314    1.391351    6.811006    ( 0.0000,  0.0000,  0.0000)
  23 F      1.626314   19.130730    6.811006    ( 0.0000,  0.0000,  0.0000)
  24 F      1.626314   11.666043    3.392983    ( 0.0000,  0.0000,  0.0000)
  25 F      1.626314    8.856038    3.392983    ( 0.0000,  0.0000,  0.0000)
  26 F      1.626314    2.003969    3.456845    ( 0.0000,  0.0000,  0.0000)
  27 F      1.626314   18.518112    3.456845    ( 0.0000,  0.0000,  0.0000)
  28 F      1.626314   12.278661    0.038822    ( 0.0000,  0.0000,  0.0000)
  29 F      1.626314    8.243420   -0.028944    ( 0.0000,  0.0000,  0.0000)
  30 F      1.626314    4.796137    3.428448    ( 0.0000,  0.0000,  0.0000)
  31 F      1.626314   15.725944    3.428448    ( 0.0000,  0.0000,  0.0000)
  32 F      1.626314   15.070829    0.010425    ( 0.0000,  0.0000,  0.0000)
  33 F      1.626314    5.451252    0.030523    ( 0.0000,  0.0000,  0.0000)
  34 F      0.000000    0.000000    4.749281    ( 0.0000,  0.0000,  0.0000)
  35 F      0.000000   10.274692    1.331258    ( 0.0000,  0.0000,  0.0000)

Unit cell:
           periodic     x           y           z      points  spacing
  1. axis:    yes    3.252628   -0.027303    0.000000    16     0.2033
  2. axis:    yes    0.000000   20.549384    0.000000   104     0.1976
  3. axis:    yes    0.000000    0.000000    6.836046    36     0.1899

  Lengths:   3.252743  20.549384   6.836046
  Angles:   90.000000  90.000000  90.480937

Effective grid spacing dv^(1/3) = 0.1968

                     log10-error:    total        iterations:
           time      wfs    density  energy       fermi  poisson
iter:   1  03:14:08  +1.76   +inf  -211.727100    3      28     
iter:   2  03:14:17  +0.20   +inf  -212.599864    3             
iter:   3  03:14:27  -0.38   +inf  -212.849975    2             
iter:   4  03:14:40  -0.64  -1.12  -210.735257    3      20     
iter:   5  03:14:55  -0.30  -1.16  -231.947642    36     52     
iter:   6  03:15:11  -0.31  -1.10  -265.009675    4      62     
iter:   7  03:15:27  -0.26  -1.05  -231.081197    4      63     
iter:   8  03:15:43  -0.38  -1.19  -236.539775    3      61     
iter:   9  03:15:58  -0.49  -1.13  -243.960904    36     61     
iter:  10  03:16:14  -0.57  -1.12  -208.834323    3      57     
iter:  11  03:16:28  -1.01  -1.35  -206.430562    3      39     
iter:  12  03:16:43  -1.25  -1.41  -211.717290    3      51     
iter:  13  03:16:58  -1.07  -1.30  -217.992062    3      53     
iter:  14  03:17:14  -1.14  -1.22  -205.803373    3      54     
iter:  15  03:17:29  -1.62  -1.44  -209.554317    3      47     
iter:  16  03:17:43  -1.51  -1.36  -206.483341    3      50     
iter:  17  03:17:57  -1.81  -1.43  -205.024739    3      37     
iter:  18  03:18:10  -2.08  -1.48  -205.215345    3      26     
iter:  19  03:18:24  -1.37  -1.50  -213.748167    4      51     
iter:  20  03:18:39  -0.97  -1.37  -222.220093    3      55     
iter:  21  03:18:54  -1.15  -1.21  -217.891821    4      59     
iter:  22  03:19:09  -1.18  -1.27  -204.854479    3      52     
iter:  23  03:19:22  -1.61  -1.59  -205.561426    3      34     
iter:  24  03:19:35  -1.66  -1.58  -204.541523    3      28     
iter:  25  03:19:49  -2.07  -1.62  -205.694894    3      39     
iter:  26  03:20:03  -1.65  -1.58  -210.483157    3      49     
iter:  27  03:20:19  -1.41  -1.38  -215.140707    3      56     
iter:  28  03:20:34  -1.31  -1.29  -206.360569    3      52     
iter:  29  03:20:48  -1.72  -1.54  -206.016926    2      48     
iter:  30  03:21:02  -2.06  -1.57  -204.638021    3      38     
iter:  31  03:21:16  -2.84  -1.66  -204.850694    3      25     
iter:  32  03:21:31  -1.96  -1.65  -210.607446    3      48     
iter:  33  03:21:45  -1.44  -1.40  -217.644239    3      57     
iter:  34  03:22:00  -1.24  -1.27  -212.952279    3      54     
iter:  35  03:22:15  -1.42  -1.34  -205.151346    3      51     
iter:  36  03:22:29  -2.06  -1.65  -205.024379    2      23     
iter:  37  03:22:41  -2.43  -1.67  -204.931134    2      15     
iter:  38  03:22:56  -2.02  -1.68  -210.450334    3      47     
iter:  39  03:23:12  -1.42  -1.42  -218.207334    4      57     
iter:  40  03:23:27  -1.22  -1.29  -219.919465    3      56     
iter:  41  03:23:41  -1.25  -1.28  -204.796299    3      53     
iter:  42  03:23:55  -1.91  -1.72  -205.095001    3      32     
iter:  43  03:24:08  -2.33  -1.71  -204.551559    3      33     
iter:  44  03:24:22  -2.13  -1.78  -208.735904    3      46     
iter:  45  03:24:37  -1.58  -1.50  -211.732085    3      54     
iter:  46  03:24:52  -1.42  -1.40  -212.251616    3      54     
iter:  47  03:25:06  -1.51  -1.39  -204.847205    3      49     
iter:  48  03:25:20  -2.11  -1.78  -205.072308    3      38     
iter:  49  03:25:33  -2.36  -1.76  -204.561023    3      35     
iter:  50  03:25:48  -2.28  -1.84  -208.201383    3      46     
iter:  51  03:26:03  -1.68  -1.54  -209.384188    3      53     
iter:  52  03:26:18  -1.52  -1.48  -211.733856    3      53     
iter:  53  03:26:33  -1.62  -1.41  -204.583942    3      49     
iter:  54  03:26:45  -2.26  -1.86  -204.704801    3      21     
iter:  55  03:27:01  -2.37  -1.86  -204.777741    2      24     
iter:  56  03:27:18  -2.03  -1.84  -208.707495    3      46     
iter:  57  03:27:36  -1.61  -1.54  -210.300501    3      54     
iter:  58  03:27:54  -1.48  -1.46  -211.695049    3      53     
iter:  59  03:28:12  -1.58  -1.42  -205.025183    3      51     
iter:  60  03:28:28  -2.19  -1.83  -204.636437    3      32     
iter:  61  03:28:41  -2.96  -1.91  -204.629272    2      14     
iter:  62  03:28:55  -2.22  -1.91  -207.687940    3      44     
iter:  63  03:29:10  -1.73  -1.59  -209.753266    3      53     
iter:  64  03:29:24  -1.53  -1.49  -209.943233    2      53     
iter:  65  03:29:39  -1.66  -1.49  -204.709060    3      49     
iter:  66  03:29:53  -2.30  -1.92  -204.609352    2      32     
iter:  67  03:30:06  -2.82  -1.97  -204.574870    2      27     
iter:  68  03:30:20  -2.21  -1.96  -207.816991    3      45     
iter:  69  03:30:35  -1.74  -1.59  -208.790589    3      52     
iter:  70  03:30:49  -1.65  -1.55  -207.776973    3      52     
iter:  71  03:31:04  -1.83  -1.61  -204.772058    3      46     
iter:  72  03:31:17  -2.48  -1.95  -204.600192    2      24     
iter:  73  03:31:29  -3.13  -2.00  -204.590193    2      10     
iter:  74  03:31:45  -1.94  -2.00  -211.156588    3      50     
iter:  75  03:31:59  -1.59  -1.46  -209.200679    3      54     
iter:  76  03:32:14  -1.70  -1.55  -206.680949    3      51     
iter:  77  03:32:28  -2.18  -1.70  -204.748408    3      41     
iter:  78  03:32:41  -2.83  -1.98  -204.698060    2      20     
iter:  79  03:32:54  -2.85  -2.00  -204.724309    2      19     
iter:  80  03:33:09  -2.04  -2.00  -206.677327    3      45     
iter:  81  03:33:24  -1.80  -1.73  -208.133013    3      51     
iter:  82  03:33:39  -1.86  -1.62  -205.163883    3      48     
iter:  83  03:33:53  -2.08  -1.94  -205.996716    3      46     
iter:  84  03:34:07  -2.15  -1.82  -204.617863    3      40     
iter:  85  03:34:19  -3.03  -2.18  -204.573102    2      8      
iter:  86  03:34:33  -2.61  -2.19  -205.631601    3      40     
iter:  87  03:34:47  -2.15  -1.86  -206.697789    3      48     
iter:  88  03:35:01  -1.95  -1.75  -205.052792    2      46     
iter:  89  03:35:16  -2.39  -2.00  -204.752957    2      41     
iter:  90  03:35:29  -2.66  -2.08  -204.619315    3      29     
iter:  91  03:35:41  -3.21  -2.19  -204.547361    2      14     
iter:  92  03:35:54  -2.84  -2.23  -205.254952    3      38     
iter:  93  03:36:09  -2.37  -1.94  -205.677235    3      45     
iter:  94  03:36:23  -2.20  -1.88  -205.015333    2      43     
iter:  95  03:36:38  -2.44  -2.01  -204.793296    2      41     
iter:  96  03:36:51  -2.77  -2.11  -204.637950    3      28     
iter:  97  03:37:03  -3.12  -2.20  -204.567983    2      16     
iter:  98  03:37:19  -3.09  -2.24  -204.914039    3      35     
iter:  99  03:37:36  -2.65  -2.04  -205.149837    3      42     
iter: 100  03:37:53  -2.40  -1.98  -204.931002    2      42     
iter: 101  03:38:10  -2.48  -2.05  -204.625001    3      39     
iter: 102  03:38:25  -2.83  -2.22  -204.619548    2      19     
iter: 103  03:38:40  -3.03  -2.24  -204.521553    2      15     
iter: 104  03:38:56  -3.24  -2.31  -204.713882    2      30     
iter: 105  03:39:12  -2.83  -2.15  -205.049008    3      40     
iter: 106  03:39:27  -2.45  -2.01  -205.082504    2      42     
iter: 107  03:39:41  -2.40  -2.01  -204.576942    3      38     
iter: 108  03:39:54  -2.82  -2.27  -204.599126    2      29     
iter: 109  03:40:06  -3.26  -2.28  -204.526747    2      17     
iter: 110  03:40:19  -3.86  -2.34  -204.569326    2      20     
iter: 111  03:40:33  -3.04  -2.27  -204.856305    3      37     
iter: 112  03:40:48  -2.33  -2.09  -206.073421    3      44     
iter: 113  03:41:01  -2.21  -1.82  -204.572925    3      43     
iter: 114  03:41:14  -2.88  -2.31  -204.571618    2      22     
iter: 115  03:41:26  -3.16  -2.29  -204.573195    2      16     
iter: 116  03:41:39  -3.66  -2.29  -204.537566    2      16     
iter: 117  03:41:51  -4.17  -2.35  -204.511523    2      13     
iter: 118  03:42:05  -2.77  -2.42  -204.830551    3      35     
iter: 119  03:42:19  -2.52  -2.14  -205.379804    2      43     
iter: 120  03:42:34  -2.54  -1.94  -204.528098    3      41     
iter: 121  03:42:47  -2.91  -2.45  -204.524890    2      17     
iter: 122  03:43:00  -2.82  -2.49  -204.662443    2      34     
iter: 123  03:43:13  -2.92  -2.27  -204.466698    3      31     
iter: 124  03:43:26  -3.73  -2.69  -204.482396    2      18     
iter: 125  03:43:40  -3.15  -2.61  -204.745693    2      36     
iter: 126  03:43:54  -2.99  -2.18  -204.469495    2      34     
iter: 127  03:44:07  -3.42  -2.71  -204.488352    2      18     
iter: 128  03:44:21  -3.39  -2.58  -204.505277    2      27     
iter: 129  03:44:34  -3.73  -2.54  -204.465273    2      24     
iter: 130  03:44:46  -4.37  -2.73  -204.464986    2      11     
iter: 131  03:44:59  -3.21  -2.76  -204.698541    3      33     
iter: 132  03:45:13  -3.05  -2.21  -204.464496    2      34     
iter: 133  03:45:26  -3.75  -2.77  -204.478304    2      20     
iter: 134  03:45:38  -3.72  -2.64  -204.484245    2      23     
iter: 135  03:45:51  -3.82  -2.68  -204.467854    2      22     
iter: 136  03:46:03  -4.15  -2.79  -204.460577    2      16     
iter: 137  03:46:16  -3.38  -2.83  -204.554910    2      29     
iter: 138  03:46:29  -3.15  -2.45  -204.460093    2      27     
iter: 139  03:46:42  -3.83  -2.82  -204.480589    2      25     
iter: 140  03:46:55  -3.97  -2.67  -204.466989    2      23     
iter: 141  03:47:07  -4.11  -2.83  -204.457577    2      7      
iter: 142  03:47:19  -4.21  -2.86  -204.457843    2      13     
iter: 143  03:47:31  -4.02  -2.96  -204.464414    2      8      
iter: 144  03:47:45  -3.67  -2.86  -204.471409    2      20     
iter: 145  03:47:57  -3.99  -2.80  -204.463870    2      22     
iter: 146  03:48:10  -4.21  -2.87  -204.458208    2      21     
iter: 147  03:48:24  -3.95  -2.94  -204.483181    2      23     
iter: 148  03:48:39  -3.96  -2.68  -204.452001    2      24     
iter: 149  03:48:54  -4.09  -3.05  -204.465958    2      9      
iter: 150  03:49:08  -4.13  -2.93  -204.455677    2      7      
iter: 151  03:49:22  -4.85  -3.09  -204.453277    2      7      
iter: 152  03:49:37  -4.99  -3.11  -204.454108    2      13     
iter: 153  03:49:51  -4.72  -3.11  -204.455686    2      6      
iter: 154  03:50:07  -4.06  -3.14  -204.480894    2      23     
iter: 155  03:50:21  -4.14  -2.72  -204.452360    1      22     
iter: 156  03:50:33  -4.47  -3.18  -204.454482    2      6      
iter: 157  03:50:46  -4.45  -3.15  -204.457255    2      15     
iter: 158  03:50:58  -4.72  -3.03  -204.452943    2      16     
iter: 159  03:51:10  -5.22  -3.24  -204.451970    2      4      
iter: 160  03:51:21  -4.74  -3.28  -204.455983    2      6      
iter: 161  03:51:33  -4.31  -3.28  -204.454983    2      6      
iter: 162  03:51:46  -4.50  -3.23  -204.456675    2      16     
iter: 163  03:51:59  -4.29  -3.06  -204.467740    2      23     
iter: 164  03:52:12  -4.16  -2.83  -204.452719    2      21     
iter: 165  03:52:23  -4.69  -3.30  -204.453344    2      5      
iter: 166  03:52:35  -5.13  -3.43  -204.454428    1      6      
iter: 167  03:52:46  -5.08  -3.45  -204.452688    2      4      
iter: 168  03:52:58  -5.30  -3.51  -204.452257    2      4      
iter: 169  03:53:11  -4.54  -3.51  -204.466269    2      21     
iter: 170  03:53:24  -4.46  -2.86  -204.452852    2      19     
iter: 171  03:53:35  -5.34  -3.55  -204.452680    1      5      
iter: 172  03:53:48  -5.69  -3.66  -204.452094    2      3      
iter: 173  03:53:59  -5.73  -3.70  -204.452821    2      3      
iter: 174  03:54:11  -5.85  -3.69  -204.453007    2      3      
iter: 175  03:54:22  -5.66  -3.70  -204.452481    2      5      
iter: 176  03:54:35  -5.07  -3.67  -204.455707    2      15     
iter: 177  03:54:47  -4.81  -3.10  -204.452203    2      15     
iter: 178  03:55:00  -5.51  -3.66  -204.452844    2      4      
iter: 179  03:55:12  -5.56  -3.73  -204.452546    2      3      
iter: 180  03:55:24  -5.62  -3.69  -204.452284    2      4      
iter: 181  03:55:36  -5.70  -3.71  -204.452613    2      3      
iter: 182  03:55:48  -4.82  -3.80  -204.463597    2      19     
iter: 183  03:56:00  -4.78  -2.95  -204.454252    2      15     
iter: 184  03:56:12  -5.51  -3.38  -204.452121    2      8      
iter: 185  03:56:24  -5.74  -3.80  -204.452316    2      4      
iter: 186  03:56:35  -5.75  -3.97  -204.453038    2      6      
iter: 187  03:56:47  -5.66  -3.74  -204.452333    2      3      
iter: 188  03:56:58  -6.30  -3.77  -204.452383    1      2      
iter: 189  03:57:10  -6.46  -3.82  -204.452651    2      2      
iter: 190  03:57:21  -6.88  -3.82  -204.452559    1      2      
iter: 191  03:57:34  -4.88  -3.79  -204.459380    2      18     
iter: 192  03:57:46  -4.79  -3.02  -204.452974    2      15     
iter: 193  03:57:57  -5.93  -3.67  -204.452770    1      2      
iter: 194  03:58:09  -6.24  -3.76  -204.452323    1      5      
iter: 195  03:58:20  -6.26  -4.08  -204.452339    2      3      
iter: 196  03:58:32  -6.42  -4.04  -204.452312    2      2      
iter: 197  03:58:44  -6.61  -4.02  -204.452152    2      2      
iter: 198  03:58:56  -6.49  -4.06  -204.452420    2      3      
iter: 199  03:59:08  -5.86  -4.15  -204.453267    2      8      
iter: 200  03:59:20  -5.85  -3.59  -204.452832    2      3      
iter: 201  03:59:33  -6.33  -3.80  -204.453193    2      3      
iter: 202  03:59:47  -6.92  -3.65  -204.453413    2      2      
iter: 203  04:00:01  -6.48  -3.58  -204.453700    2      4      
iter: 204  04:00:16  -5.39  -3.50  -204.452801    2      13     
iter: 205  04:00:29  -5.78  -3.53  -204.452671    2      3      
iter: 206  04:00:44  -5.73  -3.52  -204.452937    2      9      
iter: 207  04:00:57  -5.95  -3.73  -204.452505    2      3      
iter: 208  04:01:10  -6.41  -3.89  -204.452385    1      3      
iter: 209  04:01:22  -6.45  -4.12  -204.452477    2      5      
iter: 210  04:01:33  -6.30  -4.03  -204.452245    2      2      
iter: 211  04:01:45  -6.14  -4.04  -204.452860    2      4      
iter: 212  04:01:56  -6.20  -3.89  -204.452502    2      2      
iter: 213  04:02:08  -6.86  -3.96  -204.452472    1      2      
iter: 214  04:02:20  -5.35  -4.01  -204.454405    2      12     
iter: 215  04:02:32  -5.27  -3.35  -204.452857    2      7      
iter: 216  04:02:44  -6.01  -3.72  -204.452426    2      5      
iter: 217  04:02:55  -6.11  -3.81  -204.452280    2      3      
iter: 218  04:03:07  -6.59  -4.02  -204.452457    2      2      
iter: 219  04:03:19  -5.59  -4.11  -204.453570    2      9      
iter: 220  04:03:31  -5.60  -3.55  -204.452894    2      3      
iter: 221  04:03:42  -6.19  -3.72  -204.452687    2      4      
iter: 222  04:03:54  -6.18  -3.71  -204.452662    2      3      
iter: 223  04:04:05  -6.59  -3.83  -204.452352    2      2      
iter: 224  04:04:22  -5.18  -3.89  -204.454582    2      13     
iter: 225  04:04:39  -5.18  -3.29  -204.452967    2      5      
iter: 226  04:04:55  -6.30  -3.51  -204.452820    1      2      
iter: 227  04:05:11  -6.49  -3.53  -204.452565    1      3      
iter: 228  04:05:28  -6.36  -3.67  -204.452616    2      6      
iter: 229  04:05:43  -5.95  -4.25  -204.452327    2      7      
iter: 230  04:06:01  -5.89  -3.74  -204.452710    2      3      
iter: 231  04:06:21  -6.68  -3.76  -204.452688    1      1      
iter: 232  04:06:38  -6.78  -3.77  -204.452527    1      2      
iter: 233  04:06:54  -6.55  -3.87  -204.452589    2      2      
iter: 234  04:07:10  -5.45  -3.89  -204.454657    2      12     
iter: 235  04:07:24  -5.42  -3.39  -204.452689    2      5      
iter: 236  04:07:40  -6.44  -3.59  -204.452643    2      3      
iter: 237  04:07:54  -6.64  -3.65  -204.452498    2      3      
iter: 238  04:08:09  -6.35  -3.81  -204.452361    2      3      
iter: 239  04:08:21  -5.38  -4.01  -204.453816    2      11     
iter: 240  04:08:33  -5.39  -3.46  -204.452981    2      3      
iter: 241  04:08:44  -6.45  -3.60  -204.452805    2      2      
iter: 242  04:08:56  -6.80  -3.64  -204.452769    2      2      
iter: 243  04:09:08  -6.18  -3.72  -204.452693    2      3      
iter: 244  04:09:21  -5.01  -3.81  -204.455672    2      16     
iter: 245  04:09:33  -4.98  -3.13  -204.453204    2      10     
iter: 246  04:09:45  -6.03  -3.47  -204.452435    2      4      
iter: 247  04:09:57  -6.15  -3.55  -204.452536    2      4      
iter: 248  04:10:09  -6.16  -3.73  -204.452595    2      3      
iter: 249  04:10:21  -5.35  -3.94  -204.453531    2      12     
iter: 250  04:10:33  -5.26  -3.37  -204.453136    2      4      
iter: 251  04:10:45  -5.80  -3.52  -204.452279    2      6      
iter: 252  04:10:57  -5.70  -3.62  -204.453454    2      4      
iter: 253  04:11:09  -5.80  -3.68  -204.452482    2      3      
iter: 254  04:11:23  -4.55  -3.83  -204.466436    2      21     
iter: 255  04:11:36  -4.47  -2.89  -204.452695    2      18     
iter: 256  04:11:49  -5.58  -3.64  -204.452633    2      2      
iter: 257  04:12:00  -6.05  -3.72  -204.452555    2      2      
iter: 258  04:12:12  -6.01  -3.70  -204.452876    2      3      
iter: 259  04:12:23  -6.08  -3.72  -204.452567    2      3      
iter: 260  04:12:35  -6.87  -3.64  -204.452576    1      1      
iter: 261  04:12:48  -4.65  -3.62  -204.466647    2      21     
iter: 262  04:13:00  -4.66  -2.86  -204.454734    2      15     
iter: 263  04:13:12  -5.86  -3.22  -204.453887    2      4      
iter: 264  04:13:24  -6.02  -3.30  -204.453634    2      3      
iter: 265  04:13:36  -5.02  -3.38  -204.454157    2      17     
iter: 266  04:13:48  -5.07  -3.27  -204.453369    2      6      
iter: 267  04:14:00  -6.11  -3.51  -204.452836    2      3      
iter: 268  04:14:11  -6.41  -3.63  -204.452628    1      4      
iter: 269  04:14:23  -6.47  -3.84  -204.452478    2      3      
iter: 270  04:14:35  -6.49  -4.07  -204.452391    2      5      
iter: 271  04:14:51  -6.37  -4.33  -204.452523    2      2      
iter: 272  04:15:05  -7.00  -4.20  -204.452478    2      1      
iter: 273  04:15:23  -7.27  -4.18  -204.452435    2      1      
iter: 274  04:15:42  -7.58  -4.18  -204.452461    1      1      

Converged after 274 iterations.

Dipole moment: (-25.861776, -33.449832, -29.726091) |e|*Ang

Energy contributions relative to reference atoms: (reference = -479224.937077)

Kinetic:       +169.423306
Potential:     -171.423925
External:        +0.000000
XC:            -211.398263
Entropy (-ST):   -1.437503
Local:           +9.665172
--------------------------
Free energy:   -205.171212
Extrapolated:  -204.452461

Fermi level: 3.75826

 Band  Eigenvalues  Occupancy
    0    -21.09051    2.00000
    1    -20.88762    2.00000
    2    -20.72655    2.00000
    3    -20.70597    2.00000
    4    -20.65644    2.00000
    5    -20.59475    2.00000
    6    -20.48732    2.00000
    7    -20.44074    2.00000
    8    -20.38495    2.00000
    9    -20.34119    2.00000
   10    -20.33433    2.00000
   11    -20.31010    2.00000
   12    -20.30062    2.00000
   13    -20.28416    2.00000
   14    -20.26759    2.00000
   15    -20.23866    2.00000
   16    -20.21655    2.00000
   17    -20.15717    2.00000
   18    -19.86807    2.00000
   19    -19.79019    2.00000
   20    -19.37355    2.00000
   21    -19.02066    2.00000
   22    -14.53673    2.00000
   23    -14.46144    2.00000
   24     -4.30532    2.00000
   25     -4.16534    2.00000
   26     -4.02929    2.00000
   27     -3.91708    2.00000
   28     -3.86470    2.00000
   29     -3.62672    2.00000
   30     -3.59678    2.00000
   31     -3.54551    2.00000
   32     -3.39499    2.00000
   33     -3.25338    2.00000
   34     -2.90531    2.00000
   35     -2.79767    2.00000
   36     -2.67976    2.00000
   37     -2.65157    2.00000
   38     -2.60874    2.00000
   39     -2.56608    2.00000
   40     -2.54354    2.00000
   41     -2.52328    2.00000
   42     -2.46828    2.00000
   43     -2.45751    2.00000
   44     -2.43932    2.00000
   45     -2.42282    2.00000
   46     -2.38968    2.00000
   47     -2.34453    2.00000
   48     -2.33940    2.00000
   49     -2.32176    2.00000
   50     -2.30368    2.00000
   51     -2.29974    2.00000
   52     -2.29837    2.00000
   53     -2.27894    2.00000
   54     -2.26404    2.00000
   55     -2.24007    2.00000
   56     -2.20868    2.00000
   57     -2.18394    2.00000
   58     -2.13873    2.00000
   59     -2.11941    2.00000
   60     -2.07279    2.00000
   61     -1.98494    2.00000
   62     -1.92311    2.00000
   63     -1.73670    2.00000
   64     -1.71029    2.00000
   65     -1.70175    2.00000
   66     -1.69875    2.00000
   67     -1.62162    2.00000
   68     -1.60992    2.00000
   69     -1.58387    2.00000
   70     -1.57488    2.00000
   71     -1.52304    2.00000
   72     -1.49055    2.00000
   73     -1.47158    2.00000
   74     -1.31753    2.00000
   75     -1.28071    2.00000
   76     -1.24274    2.00000
   77     -1.22704    2.00000
   78     -1.19876    2.00000
   79     -1.19501    2.00000
   80     -1.15963    2.00000
   81     -1.12124    2.00000
   82     -1.09390    2.00000
   83     -1.02777    2.00000
   84     -0.90859    2.00000
   85     -0.89969    2.00000
   86     -0.58980    2.00000
   87     -0.54252    2.00000
   88     -0.42362    2.00000
   89     -0.32096    2.00000
   90     -0.13287    2.00000
   91     -0.09534    2.00000
   92     -0.03754    2.00000
   93      0.07553    2.00000
   94      0.62216    2.00000
   95      0.63223    2.00000
   96      2.75691    1.99991
   97      2.79290    1.99987
   98      2.83029    1.99981
   99      2.84364    1.99979
  100      2.85805    1.99975
  101      2.89295    1.99965
  102      2.90030    1.99962
  103      2.91525    1.99956
  104      2.92361    1.99953
  105      2.94837    1.99939
  106      2.95099    1.99938
  107      2.99404    1.99904
  108      3.07162    1.99792
  109      3.08527    1.99761
  110      3.10626    1.99706
  111      3.14307    1.99575
  112      3.16025    1.99496
  113      3.16703    1.99460
  114      3.17540    1.99413
  115      3.17800    1.99398
  116      3.19753    1.99269
  117      3.23685    1.98918
  118      3.24815    1.98789
  119      3.25545    1.98698
  120      3.28002    1.98339
  121      3.28599    1.98237
  122      3.29969    1.97981
  123      3.41711    1.93613
  124      3.43593    1.92341
  125      3.51270    1.84195
  126      3.54994    1.77853
  127      3.58139    1.70861
  128      3.66213    1.44680
  129      3.68497    1.35089
  130      3.71856    1.19595
  131      3.78265    0.87868
  132      3.82205    0.69144
  133      3.87882    0.46097
  134      3.89064    0.42037
  135      3.99513    0.17119
  136      4.08084    0.07642
  137      4.13467    0.04533
  138      4.15696    0.03644
  139      4.16339    0.03421
  140      4.16702    0.03301
  141      4.16952    0.03221
  142      4.18533    0.02756
  143      4.27747    0.01106
  144      4.28815    0.00994
  145      4.32313    0.00702
  146      4.34410    0.00570
  147      4.36285    0.00472
  148      4.38703    0.00371
  149      4.40875    0.00299
  150      4.50923    0.00109
  151      4.87629    0.00003
  152      5.04988    0.00000
  153      5.17915    0.00000
  154      5.23970    0.00000
  155      5.26225    0.00000
  156      5.89322    0.00000
  157      6.44390    0.00000
  158      6.65833    0.00000
  159      7.99485    0.00000
  160      8.24598    0.00000
  161      9.49746    0.00000
  162      9.84455    0.00000
  163      9.94669    0.00000
  164     10.16447    0.00000
  165     10.24577    0.00000
  166     10.33334    0.00000
  167     10.41916    0.00000
  168     10.54293    0.00000
  169     10.63403    0.00000
  170     10.81598    0.00000
  171     10.94482    0.00000
  172     11.34408    0.00000
  173     11.39596    0.00000
  174     11.55823    0.00000
  175     11.96655    0.00000
  176     12.02421    0.00000
  177     12.68689    0.00000
  178     13.05891    0.00000
  179     13.26584    0.00000
  180     14.26006    0.00000
  181     14.42144    0.00000
  182     14.86139    0.00000
  183     14.92474    0.00000
  184     15.00382    0.00000
  185     15.43037    0.00000
  186     15.45310    0.00000
  187     15.74238    0.00000
  188     16.06687    0.00000
  189     16.19043    0.00000
  190     16.27116    0.00000
  191     16.34631    0.00000
  192     16.44085    0.00000
  193     16.66290    0.00000
  194     16.69586    0.00000
  195     16.75645    0.00000
  196     16.82116    0.00000
  197     16.89062    0.00000
  198     16.97900    0.00000
  199     17.02563    0.00000
  200     17.17932    0.00000
  201     17.27557    0.00000
  202     17.30489    0.00000
  203     17.35696    0.00000

Timing:                              incl.     excl.
-----------------------------------------------------------
Hamiltonian:                         3.880     0.000   0.0% |
 Atomic:                             1.619     0.004   0.0% |
  XC Correction:                     1.615     1.615   0.0% |
 Calculate atomic Hamiltonians:      0.015     0.015   0.0% |
 Communicate:                        0.000     0.000   0.0% |
 Hartree integrate/restrict:         0.014     0.014   0.0% |
 Initialize Hamiltonian:             0.000     0.000   0.0% |
 Poisson:                            1.851     1.851   0.0% |
 XC 3D grid:                         0.377     0.377   0.0% |
 vbar:                               0.003     0.003   0.0% |
LCAO initialization:                11.904     0.235   0.0% |
 LCAO eigensolver:                   1.555     0.000   0.0% |
  Calculate projections:             0.008     0.008   0.0% |
  DenseAtomicCorrection:             0.008     0.008   0.0% |
  Distribute overlap matrix:         0.000     0.000   0.0% |
  Orbital Layouts:                   0.026     0.026   0.0% |
  Potential matrix:                  1.512     1.512   0.0% |
 LCAO to grid:                       9.153     9.153   0.2% |
 Set positions (LCAO WFS):           0.961     0.000   0.0% |
  Basic WFS set positions:           0.001     0.001   0.0% |
  Basis functions set positions:     0.000     0.000   0.0% |
  TCI: Calculate S, T, P:            0.960     0.960   0.0% |
SCF-cycle:                        3705.414     0.206   0.0% |
 Davidson:                        2710.589   586.311  15.8% |-----|
  Apply hamiltonian:                79.203    79.203   2.1% ||
  Subspace diag:                   730.974     0.048   0.0% |
   calc_h_matrix:                  299.817   219.435   5.9% |-|
    Apply hamiltonian:              80.381    80.381   2.2% ||
   diagonalize:                      3.089     3.089   0.1% |
   rotate_psi:                     428.021   428.021  11.5% |----|
  calc. matrices:                  872.220   792.890  21.3% |--------|
   Apply hamiltonian:               79.330    79.330   2.1% ||
  diagonalize:                      11.255    11.255   0.3% |
  rotate_psi:                      430.626   430.626  11.6% |----|
 Density:                           14.302     0.007   0.0% |
  Atomic density matrices:           1.016     1.016   0.0% |
  Mix:                               7.271     7.271   0.2% |
  Multipole moments:                 0.231     0.231   0.0% |
  Pseudo density:                    5.776     5.770   0.2% |
   Symmetrize density:               0.006     0.006   0.0% |
 Hamiltonian:                      978.279     0.035   0.0% |
  Atomic:                          446.751     0.966   0.0% |
   XC Correction:                  445.784   445.784  12.0% |----|
  Calculate atomic Hamiltonians:     4.322     4.322   0.1% |
  Communicate:                       0.003     0.003   0.0% |
  Hartree integrate/restrict:        3.654     3.654   0.1% |
  Poisson:                         418.895   418.895  11.3% |----|
  XC 3D grid:                      103.604   103.604   2.8% ||
  vbar:                              1.017     1.017   0.0% |
 Orthonormalize:                     2.038     0.000   0.0% |
  calc_s_matrix:                     0.507     0.507   0.0% |
  inverse-cholesky:                  0.002     0.002   0.0% |
  projections:                       0.732     0.732   0.0% |
  rotate_psi_s:                      0.797     0.797   0.0% |
Set symmetry:                        0.001     0.001   0.0% |
Other:                               1.060     1.060   0.0% |
-----------------------------------------------------------
Total:                                      3722.259 100.0%

Memory usage: 1.08 GiB
Date: Sat Mar 30 04:15:42 2019
