
  ___ ___ ___ _ _ _  
 |   |   |_  | | | | 
 | | | | | . | | | | 
 |__ |  _|___|_____|  1.4.0
 |___|_|             

User:   murakami@tssm1.eng.shizuoka.ac.jp
Date:   Sat Mar 30 01:44:15 2019
Arch:   x86_64
Pid:    31289
Python: 3.6.5
gpaw:   /home/murakami/.local/lib/python3.6/site-packages/gpaw
_gpaw:  /home/murakami/.local/lib/python3.6/site-packages/
        _gpaw.cpython-36m-x86_64-linux-gnu.so
ase:    /home/murakami/.local/lib/python3.6/site-packages/ase (version 3.16.2)
numpy:  /home/murakami/.local/lib/python3.6/site-packages/numpy (version 1.15.2)
scipy:  /home/murakami/.local/lib/python3.6/site-packages/scipy (version 1.1.0)
units:  Angstrom and eV
cores:  1

Input parameters:
  kpts: {size: (1, 1, 1)}
  maxiter: 300
  xc: PBE

System changes: positions, numbers, cell, pbc, initial_charges, initial_magmoms 

Initialize ...

Fe-setup:
  name: Iron
  id: 37abbd8d6c3c35915a9b583b742da910
  Z: 26
  valence: 8
  core: 18
  charge: 0.0
  file: /home/murakami/Public/gpaw-setups-0.9.20000/Fe.PBE.gz
  cutoffs: 1.06(comp), 2.06(filt), 2.67(core), lmax=2
  valence states:
                energy  radius
    4s(2.00)    -5.291   1.164
    4p(0.00)    -1.326   1.058
    3d(6.00)    -7.505   1.058
    *s          21.920   1.164
    *p          25.885   1.058
    *d          19.706   1.058

  Using partial waves for Fe as LCAO basis

O-setup:
  name: Oxygen
  id: 32ecd46bf208036f09c70b0ec9a88b78
  Z: 8
  valence: 6
  core: 2
  charge: 0.0
  file: /home/murakami/Public/gpaw-setups-0.9.20000/O.PBE.gz
  cutoffs: 0.67(comp), 1.17(filt), 0.83(core), lmax=2
  valence states:
                energy  radius
    2s(2.00)   -23.961   0.688
    2p(4.00)    -9.029   0.598
    *s           3.251   0.688
    *p          18.182   0.598
    *d           0.000   0.619

  Using partial waves for O as LCAO basis

F-setup:
  name: Fluorine
  id: 9cd46ba2a61e170ad72278be75b55cc0
  Z: 9
  valence: 7
  core: 2
  charge: 0.0
  file: /home/murakami/Public/gpaw-setups-0.9.20000/F.PBE.gz
  cutoffs: 0.64(comp), 1.14(filt), 0.74(core), lmax=2
  valence states:
                energy  radius
    2s(2.00)   -29.898   0.635
    2p(5.00)   -11.110   0.635
    *s          -2.687   0.635
    *p          16.102   0.635
    *d           0.000   0.635

  Using partial waves for F as LCAO basis

Reference energy: -479224.937077

Spin-paired calculation

Occupation numbers:
  Fermi-Dirac: width=0.1000 eV

Convergence criteria:
  Maximum total energy change: 0.0005 eV / electron
  Maximum integral of absolute density change: 0.0001 electrons
  Maximum integral of absolute eigenstate change: 4e-08 eV^2
  Maximum number of iterations: 300

Symmetries present (total): 1

  ( 1  0  0)
  ( 0  1  0)
  ( 0  0  1)

1 k-point (Gamma)
1 k-point in the irreducible part of the Brillouin zone
       k-points in crystal coordinates                weights
   0:     0.00000000    0.00000000    0.00000000          1/1

Wave functions: Uniform real-space grid
  Kinetic energy operator: 6*3+1=19 point O(h^6) finite-difference Laplacian
  ScaLapack parameters: grid=1x1, blocksize=None 

Eigensolver
   Davidson(niter=1, smin=None, normalize=True) 

Densities:
  Coarse grid: 16*104*32 grid
  Fine grid: 32*208*64 grid
  Total Charge: 0.000000 

Density mixing:
  Method: separate
  Backend: pulay
  Linear mixing parameter: 0.05
  Mixing with 5 old densities
  Damping of long wave oscillations: 50 

Hamiltonian:
  XC and Coulomb potentials evaluated on a 32*208*64 grid
  Using the PBE Exchange-Correlation functional
  Interpolation: tri-quintic (5. degree polynomial)
  Poisson solver: Jacobi solver with 5 multi-grid levels
    Coarsest grid: 2 x 13 x 4 points
    Stencil: 6*3+1=19 point O(h^6) finite-difference Laplacian
    Max iterations: 1000
    Tolerance: 2.000000e-10 

Memory estimate:
  Process memory now: 1103.97 MiB
  Calculator: 269.53 MiB
    Density: 69.97 MiB
      Arrays: 10.56 MiB
      Localized functions: 55.35 MiB
      Mixer: 4.06 MiB
    Hamiltonian: 19.00 MiB
      Arrays: 6.91 MiB
      XC: 0.00 MiB
      Poisson: 7.89 MiB
      vbar: 4.20 MiB
    Wavefunctions: 180.56 MiB
      Arrays psit_nG: 82.88 MiB
      Eigensolver: 88.09 MiB
      Projections: 0.82 MiB
      Projectors: 8.78 MiB

Total number of cores used: 1

Number of atoms: 36
Number of atomic orbitals: 204
Number of bands in calculation: 204
Bands to converge: occupied states only
Number of valence electrons: 262

... initialized

Initializing position-dependent things.

Density initialized from atomic densities
Creating initial wave functions:
  204 bands from LCAO basis set

              .-------.  
             /|  F    |  
            / |       |  
           /  |       |  
          /   |     F |  
         /    |  F    |  
        /   Fe|       |  
       /  FFe |F      |  
      / O     Fe------.  
     /      F/       /   
    /  Fe F F   Fe  /    
   / F     F   F   /     
  /F  F   Fe      /      
 *      FFe  F   /       
 |   F  F       /        
 F Fe  /       /         
 |    F   F   /          
 | F Fe      /           
 O  /   F   /            
 | /   Fe  /             
 |/       /              
 Fe------*               

Positions:
   0 Fe     0.000000    3.425973    3.405553    ( 0.0000,  0.0000,  0.0000)
   1 Fe     0.000000   17.123411    3.405553    ( 0.0000,  0.0000,  0.0000)
   2 Fe     0.000000   13.700665    0.009448    ( 0.0000,  0.0000,  0.0000)
   3 Fe     0.000000    6.848719    0.009448    ( 0.0000,  0.0000,  0.0000)
   4 Fe     1.626314    3.411629    0.000027    ( 0.0000,  0.0000,  0.0000)
   5 Fe     1.626314   17.137755    0.000027    ( 0.0000,  0.0000,  0.0000)
   6 Fe     1.625319   13.686321    3.396133    ( 0.0000,  0.0000,  0.0000)
   7 Fe     1.626314    6.863063    3.396133    ( 0.0000,  0.0000,  0.0000)
   8 Fe     0.000000    0.000000    0.082607    ( 0.0000,  0.0000,  0.0000)
   9 Fe     0.000000   10.274692    3.478712    ( 0.0000,  0.0000,  0.0000)
  10 Fe     1.626314    0.000000    3.208640    ( 0.0000,  0.0000,  0.0000)
  11 Fe     1.626314   10.274692    6.604746    ( 0.0000,  0.0000,  0.0000)
  12 O      0.000000    0.000000    2.135213    ( 0.0000,  0.0000,  0.0000)
  13 O      0.017265   10.274692    5.531319    ( 0.0000,  0.0000,  0.0000)
  14 F      0.000000    3.455769    1.380850    ( 0.0000,  0.0000,  0.0000)
  15 F      0.000000   17.093615    1.380850    ( 0.0000,  0.0000,  0.0000)
  16 F      0.000000   13.756950    4.776955    ( 0.0000,  0.0000,  0.0000)
  17 F      0.000000    6.818923    4.776955    ( 0.0000,  0.0000,  0.0000)
  18 F      0.000000    3.460146    5.429327    ( 0.0000,  0.0000,  0.0000)
  19 F     -0.003997   17.089238    5.429327    ( 0.0000,  0.0000,  0.0000)
  20 F      0.000000   13.734838    2.033221    ( 0.0000,  0.0000,  0.0000)
  21 F      0.000000    6.814546    2.033221    ( 0.0000,  0.0000,  0.0000)
  22 F      1.626314    1.405002    6.767331    ( 0.0000,  0.0000,  0.0000)
  23 F      1.626314   19.144382    6.767331    ( 0.0000,  0.0000,  0.0000)
  24 F      1.610135   11.679694    3.371226    ( 0.0000,  0.0000,  0.0000)
  25 F      1.626314    8.869690    3.371226    ( 0.0000,  0.0000,  0.0000)
  26 F      1.626314    2.017621    3.471024    ( 0.0000,  0.0000,  0.0000)
  27 F      1.626314   18.531763    3.434678    ( 0.0000,  0.0000,  0.0000)
  28 F      1.626314   12.292313    0.038573    ( 0.0000,  0.0000,  0.0000)
  29 F      1.645394    8.257071    0.038573    ( 0.0000,  0.0000,  0.0000)
  30 F      1.626314    4.809789    3.458866    ( 0.0000,  0.0000,  0.0000)
  31 F      1.626314   15.739595    3.406464    ( 0.0000,  0.0000,  0.0000)
  32 F      1.626314   15.084481    0.010358    ( 0.0000,  0.0000,  0.0000)
  33 F      1.626314    5.464903    0.010358    ( 0.0000,  0.0000,  0.0000)
  34 F      0.000000    0.000000    4.718827    ( 0.0000,  0.0000,  0.0000)
  35 F      0.000000   10.384590    1.322722    ( 0.0000,  0.0000,  0.0000)

Unit cell:
           periodic     x           y           z      points  spacing
  1. axis:    yes    3.252628    0.000000    0.000000    16     0.2033
  2. axis:    yes    0.000000   20.549384    0.000000   104     0.1976
  3. axis:    yes    0.000000    0.000000    6.792211    32     0.2123

  Lengths:   3.252628  20.549384   6.792211
  Angles:   90.000000  90.000000  90.000000

Effective grid spacing dv^(1/3) = 0.2043

                     log10-error:    total        iterations:
           time      wfs    density  energy       fermi  poisson
iter:   1  01:44:48  +1.74   +inf  -213.430129    3      19     
iter:   2  01:44:58  +0.20   +inf  -214.327250    3             
iter:   3  01:45:10  -0.38   +inf  -214.586383    2             
iter:   4  01:45:27  -0.64  -1.12  -212.363829    3      9      
iter:   5  01:45:43  -0.29  -1.16  -238.412512    36     13     
iter:   6  01:46:00  -0.30  -1.07  -305.705902    32     16     
iter:   7  01:46:17  -0.31  -1.05  -215.629896    4      15     
iter:   8  01:46:30  -0.51  -1.28  -210.431127    3      9      
iter:   9  01:46:43  -0.72  -1.35  -215.045671    3      12     
iter:  10  01:46:54  -0.81  -1.26  -207.106231    3      11     
iter:  11  01:47:05  -1.42  -1.43  -210.899494    3      13     
iter:  12  01:47:16  -1.45  -1.34  -207.977366    3      13     
iter:  13  01:47:27  -1.69  -1.41  -207.876669    3      11     
iter:  14  01:47:38  -1.66  -1.43  -208.269515    3      12     
iter:  15  01:47:49  -1.40  -1.44  -207.632015    3      12     
iter:  16  01:48:01  -1.26  -1.50  -208.539068    3      12     
iter:  17  01:48:11  -1.56  -1.45  -207.409607    3      11     
iter:  18  01:48:22  -1.64  -1.50  -207.627355    3      12     
iter:  19  01:48:33  -1.44  -1.53  -208.744460    3      12     
iter:  20  01:48:43  -1.75  -1.45  -206.692007    3      12     
iter:  21  01:48:54  -2.04  -1.57  -206.091029    3      9      
iter:  22  01:49:04  -2.18  -1.64  -206.860792    3      10     
iter:  23  01:49:16  -1.68  -1.62  -207.706135    3      11     
iter:  24  01:49:27  -1.69  -1.56  -207.493439    3      11     
iter:  25  01:49:37  -1.73  -1.60  -206.959447    3      11     
iter:  26  01:49:48  -1.48  -1.67  -214.062411    3      13     
iter:  27  01:50:01  -1.36  -1.40  -207.196912    3      13     
iter:  28  01:50:11  -1.92  -1.64  -206.199434    2      9      
iter:  29  01:50:22  -2.66  -1.75  -206.297099    2      8      
iter:  30  01:50:33  -2.76  -1.74  -206.416675    3      9      
iter:  31  01:50:43  -2.46  -1.74  -206.571479    3      10     
iter:  32  01:50:54  -1.66  -1.74  -214.878005    4      13     
iter:  33  01:51:06  -1.56  -1.38  -206.221917    3      12     
iter:  34  01:51:17  -1.96  -1.84  -207.311128    3      9      
iter:  35  01:51:28  -1.72  -1.71  -208.417475    2      11     
iter:  36  01:51:40  -1.93  -1.64  -207.114090    3      12     
iter:  37  01:51:51  -2.32  -1.74  -206.220158    2      10     
iter:  38  01:52:02  -1.72  -1.86  -217.216916    4      13     
iter:  39  01:52:13  -1.56  -1.38  -206.314527    3      13     
iter:  40  01:52:23  -2.19  -1.87  -206.697866    3      7      
iter:  41  01:52:34  -2.05  -1.82  -207.409043    2      10     
iter:  42  01:52:44  -2.05  -1.75  -207.489530    2      12     
iter:  43  01:52:55  -2.04  -1.73  -206.394829    2      11     
iter:  44  01:53:06  -1.90  -1.89  -217.497932    3      13     
iter:  45  01:53:17  -1.51  -1.38  -206.260070    3      13     
iter:  46  01:53:27  -2.29  -1.93  -206.497146    2      7      
iter:  47  01:53:37  -2.51  -1.90  -206.421373    2      8      
iter:  48  01:53:48  -2.20  -1.92  -209.241194    3      12     
iter:  49  01:53:59  -1.89  -1.60  -206.435147    3      12     
iter:  50  01:54:10  -1.73  -1.93  -216.761110    3      13     
iter:  51  01:54:20  -1.51  -1.37  -206.604719    3      13     
iter:  52  01:54:31  -2.17  -1.90  -206.360999    2      7      
iter:  53  01:54:42  -2.58  -1.98  -206.417965    2      7      
iter:  54  01:54:53  -2.15  -1.96  -208.858775    3      11     
iter:  55  01:55:04  -1.95  -1.66  -206.355963    3      11     
iter:  56  01:55:15  -2.00  -2.00  -210.225495    3      12     
iter:  57  01:55:27  -1.79  -1.62  -206.217413    3      12     
iter:  58  01:55:40  -2.64  -2.07  -206.213633    2      6      
iter:  59  01:55:52  -3.19  -2.08  -206.253387    2      6      
iter:  60  01:56:05  -2.43  -2.07  -206.567778    3      9      
iter:  61  01:56:19  -2.34  -2.05  -206.263424    3      9      
iter:  62  01:56:32  -2.09  -2.16  -209.631367    3      11     
iter:  63  01:56:46  -1.90  -1.70  -207.001682    3      12     
iter:  64  01:57:01  -2.13  -1.94  -206.731377    3      11     
iter:  65  01:57:13  -2.46  -1.98  -206.218797    2      9      
iter:  66  01:57:28  -3.11  -2.23  -206.206967    2      6      
iter:  67  01:57:42  -3.13  -2.27  -206.203659    2      5      
iter:  68  01:57:56  -2.62  -2.28  -207.311432    3      10     
iter:  69  01:58:10  -2.22  -1.90  -207.362643    3      11     
iter:  70  01:58:23  -2.32  -1.88  -206.269868    2      11     
iter:  71  01:58:37  -2.51  -2.30  -206.394146    2      8      
iter:  72  01:58:51  -2.55  -2.16  -206.233393    2      9      
iter:  73  01:59:06  -3.23  -2.37  -206.172099    2      6      
iter:  74  01:59:19  -3.78  -2.43  -206.225469    2      6      
iter:  75  01:59:35  -2.87  -2.33  -206.560294    3      10     
iter:  76  01:59:52  -2.66  -2.12  -206.154334    3      9      
iter:  77  02:00:09  -3.17  -2.49  -206.184693    2      7      
iter:  78  02:00:23  -3.19  -2.39  -206.161993    2      6      
iter:  79  02:00:35  -3.91  -2.48  -206.143471    2      4      
iter:  80  02:00:48  -4.50  -2.52  -206.139824    2      5      
iter:  81  02:01:02  -3.02  -2.55  -206.474578    2      9      
iter:  82  02:01:17  -2.81  -2.14  -206.201328    2      9      
iter:  83  02:01:33  -3.28  -2.38  -206.219717    2      8      
iter:  84  02:01:48  -3.34  -2.36  -206.159885    2      8      
iter:  85  02:02:02  -3.36  -2.50  -206.165993    2      6      
iter:  86  02:02:17  -3.57  -2.53  -206.128964    2      5      
iter:  87  02:02:33  -4.07  -2.62  -206.122261    2      6      
iter:  88  02:02:49  -3.47  -2.71  -206.129377    2      5      
iter:  89  02:03:03  -3.53  -2.65  -206.154985    2      6      
iter:  90  02:03:17  -3.67  -2.56  -206.192101    2      7      
iter:  91  02:03:31  -3.45  -2.43  -206.147817    2      7      
iter:  92  02:03:45  -3.25  -2.73  -206.128697    2      7      
iter:  93  02:03:58  -3.59  -2.63  -206.133476    2      6      
iter:  94  02:04:13  -3.81  -2.70  -206.125855    2      5      
iter:  95  02:04:29  -3.98  -2.80  -206.113534    2      6      
iter:  96  02:04:44  -4.39  -2.89  -206.116683    2      5      
iter:  97  02:04:58  -4.59  -2.88  -206.110711    2      5      
iter:  98  02:05:12  -3.96  -2.99  -206.134986    2      5      
iter:  99  02:05:26  -3.85  -2.83  -206.132802    2      6      
iter: 100  02:05:42  -3.84  -2.77  -206.120687    2      5      
iter: 101  02:05:56  -3.95  -2.94  -206.128999    2      6      
iter: 102  02:06:11  -4.16  -2.82  -206.124593    2      6      
iter: 103  02:06:25  -4.42  -2.80  -206.116760    2      5      
iter: 104  02:06:38  -4.65  -3.08  -206.111846    2      4      
iter: 105  02:06:52  -4.48  -3.04  -206.112916    2      5      
iter: 106  02:07:06  -4.51  -3.12  -206.115906    2      4      
iter: 107  02:07:20  -4.12  -3.07  -206.138874    2      6      
iter: 108  02:07:35  -3.93  -2.71  -206.123743    2      6      
iter: 109  02:07:51  -4.42  -2.96  -206.113498    2      5      
iter: 110  02:08:06  -4.88  -3.19  -206.112268    2      3      
iter: 111  02:08:17  -5.46  -3.24  -206.113662    2      3      
iter: 112  02:08:29  -5.64  -3.25  -206.112148    2      3      
iter: 113  02:08:45  -5.05  -3.27  -206.117855    2      5      
iter: 114  02:08:57  -4.49  -3.12  -206.118129    2      5      
iter: 115  02:09:09  -4.39  -2.95  -206.117818    2      5      
iter: 116  02:09:23  -4.20  -3.07  -206.116957    2      4      
iter: 117  02:09:39  -4.53  -3.14  -206.109686    2      4      
iter: 118  02:09:53  -4.73  -3.26  -206.113336    2      4      
iter: 119  02:10:07  -5.54  -3.39  -206.112834    2      3      
iter: 120  02:10:22  -5.30  -3.40  -206.115221    2      4      
iter: 121  02:10:36  -5.01  -3.29  -206.113737    2      4      
iter: 122  02:10:50  -5.06  -3.34  -206.113551    2      4      
iter: 123  02:11:04  -5.05  -3.30  -206.113390    2      4      
iter: 124  02:11:18  -4.83  -3.42  -206.110861    2      4      
iter: 125  02:11:29  -4.98  -3.36  -206.114736    2      4      
iter: 126  02:11:40  -5.18  -3.42  -206.112408    2      3      
iter: 127  02:11:50  -5.84  -3.54  -206.112804    2      3      
iter: 128  02:12:01  -5.83  -3.50  -206.112513    2      3      
iter: 129  02:12:12  -5.58  -3.56  -206.111847    2      3      
iter: 130  02:12:22  -5.46  -3.44  -206.112575    2      3      
iter: 131  02:12:33  -5.72  -3.58  -206.111246    2      3      
iter: 132  02:12:44  -5.44  -3.55  -206.113081    2      3      
iter: 133  02:12:55  -5.63  -3.58  -206.113076    2      4      
iter: 134  02:13:06  -5.49  -3.44  -206.112928    2      4      
iter: 135  02:13:16  -5.55  -3.58  -206.112445    2      4      
iter: 136  02:13:27  -5.17  -3.62  -206.112592    2      4      
iter: 137  02:13:39  -5.50  -3.60  -206.113887    2      4      
iter: 138  02:13:49  -5.32  -3.69  -206.112253    2      3      
iter: 139  02:14:00  -5.36  -3.44  -206.112182    2      5      
iter: 140  02:14:11  -5.96  -4.28  -206.112618    2      3      
iter: 141  02:14:22  -6.18  -3.92  -206.112172    2      3      
iter: 142  02:14:32  -6.58  -4.37  -206.112136    2      2      
iter: 143  02:14:43  -7.06  -4.65  -206.112181    1      2      
iter: 144  02:14:54  -7.48  -4.67  -206.112261    2      1      

Converged after 144 iterations.

Dipole moment: (-25.363914, -31.049911, -33.947768) |e|*Ang

Energy contributions relative to reference atoms: (reference = -479224.937077)

Kinetic:       +174.197862
Potential:     -178.402983
External:        +0.000000
XC:            -212.489005
Entropy (-ST):   -1.409278
Local:          +11.286504
--------------------------
Free energy:   -206.816900
Extrapolated:  -206.112261

Fermi level: 3.83535

 Band  Eigenvalues  Occupancy
    0    -20.78706    2.00000
    1    -20.77383    2.00000
    2    -20.64140    2.00000
    3    -20.61685    2.00000
    4    -20.41580    2.00000
    5    -20.40018    2.00000
    6    -20.38115    2.00000
    7    -20.35416    2.00000
    8    -20.34386    2.00000
    9    -20.33873    2.00000
   10    -20.32778    2.00000
   11    -20.32250    2.00000
   12    -20.27046    2.00000
   13    -20.24209    2.00000
   14    -20.21288    2.00000
   15    -20.18838    2.00000
   16    -20.18822    2.00000
   17    -20.17650    2.00000
   18    -20.15660    2.00000
   19    -20.13605    2.00000
   20    -19.01159    2.00000
   21    -18.99612    2.00000
   22    -14.50943    2.00000
   23    -14.50624    2.00000
   24     -4.28090    2.00000
   25     -4.19175    2.00000
   26     -4.01973    2.00000
   27     -3.94728    2.00000
   28     -3.72075    2.00000
   29     -3.53372    2.00000
   30     -3.49107    2.00000
   31     -3.44210    2.00000
   32     -3.32719    2.00000
   33     -3.15338    2.00000
   34     -2.72620    2.00000
   35     -2.69981    2.00000
   36     -2.61037    2.00000
   37     -2.56409    2.00000
   38     -2.48184    2.00000
   39     -2.45378    2.00000
   40     -2.41972    2.00000
   41     -2.40977    2.00000
   42     -2.39884    2.00000
   43     -2.39544    2.00000
   44     -2.38660    2.00000
   45     -2.36922    2.00000
   46     -2.33404    2.00000
   47     -2.32698    2.00000
   48     -2.31991    2.00000
   49     -2.29464    2.00000
   50     -2.24898    2.00000
   51     -2.22390    2.00000
   52     -2.21036    2.00000
   53     -2.20056    2.00000
   54     -2.19125    2.00000
   55     -2.18872    2.00000
   56     -2.18598    2.00000
   57     -2.18215    2.00000
   58     -2.14136    2.00000
   59     -2.11986    2.00000
   60     -2.02224    2.00000
   61     -1.94830    2.00000
   62     -1.93968    2.00000
   63     -1.79044    2.00000
   64     -1.71239    2.00000
   65     -1.69503    2.00000
   66     -1.65357    2.00000
   67     -1.61612    2.00000
   68     -1.58724    2.00000
   69     -1.57820    2.00000
   70     -1.55445    2.00000
   71     -1.48086    2.00000
   72     -1.37887    2.00000
   73     -1.34232    2.00000
   74     -1.31952    2.00000
   75     -1.28431    2.00000
   76     -1.26946    2.00000
   77     -1.21787    2.00000
   78     -1.21661    2.00000
   79     -1.20426    2.00000
   80     -1.18413    2.00000
   81     -1.13355    2.00000
   82     -1.12540    2.00000
   83     -1.07446    2.00000
   84     -0.96683    2.00000
   85     -0.93511    2.00000
   86     -0.77085    2.00000
   87     -0.71274    2.00000
   88     -0.11502    2.00000
   89     -0.10491    2.00000
   90     -0.09912    2.00000
   91     -0.05856    2.00000
   92      0.09128    2.00000
   93      0.09858    2.00000
   94      0.64726    2.00000
   95      0.66060    2.00000
   96      2.81768    1.99992
   97      2.85560    1.99989
   98      2.88330    1.99985
   99      2.90127    1.99982
  100      2.90970    1.99981
  101      2.95633    1.99970
  102      2.96820    1.99966
  103      2.97342    1.99964
  104      2.98424    1.99960
  105      2.99616    1.99955
  106      3.05518    1.99918
  107      3.06246    1.99912
  108      3.15811    1.99771
  109      3.15936    1.99768
  110      3.16360    1.99758
  111      3.16407    1.99757
  112      3.22369    1.99560
  113      3.22450    1.99556
  114      3.23649    1.99500
  115      3.24143    1.99475
  116      3.24556    1.99452
  117      3.29561    1.99098
  118      3.30235    1.99036
  119      3.30704    1.98990
  120      3.33425    1.98676
  121      3.35273    1.98409
  122      3.36091    1.98275
  123      3.46859    1.95020
  124      3.48859    1.93950
  125      3.56325    1.87650
  126      3.63521    1.76188
  127      3.65312    1.72167
  128      3.75303    1.38980
  129      3.76503    1.33776
  130      3.79274    1.20988
  131      3.84992    0.92725
  132      3.91135    0.63728
  133      3.95633    0.45947
  134      3.97535    0.39563
  135      4.08215    0.15626
  136      4.15035    0.08218
  137      4.20575    0.04806
  138      4.22619    0.03936
  139      4.22874    0.03838
  140      4.24198    0.03370
  141      4.24518    0.03266
  142      4.25504    0.02964
  143      4.34370    0.01232
  144      4.34933    0.01165
  145      4.44279    0.00459
  146      4.44284    0.00459
  147      4.44456    0.00451
  148      4.44495    0.00449
  149      4.47907    0.00320
  150      4.59463    0.00101
  151      4.96363    0.00003
  152      5.13969    0.00000
  153      5.26670    0.00000
  154      5.34957    0.00000
  155      5.35217    0.00000
  156      5.98848    0.00000
  157      6.47785    0.00000
  158      6.80577    0.00000
  159      8.10812    0.00000
  160      8.31770    0.00000
  161      9.64036    0.00000
  162      9.94413    0.00000
  163     10.04865    0.00000
  164     10.33615    0.00000
  165     10.35242    0.00000
  166     10.37085    0.00000
  167     10.45864    0.00000
  168     10.72832    0.00000
  169     10.74611    0.00000
  170     10.91969    0.00000
  171     11.02332    0.00000
  172     11.38208    0.00000
  173     11.51987    0.00000
  174     11.64368    0.00000
  175     12.04123    0.00000
  176     12.11202    0.00000
  177     12.83580    0.00000
  178     13.09407    0.00000
  179     13.40141    0.00000
  180     14.36362    0.00000
  181     14.50877    0.00000
  182     14.96052    0.00000
  183     14.99659    0.00000
  184     15.15622    0.00000
  185     15.46991    0.00000
  186     15.62304    0.00000
  187     15.80727    0.00000
  188     16.19478    0.00000
  189     16.26069    0.00000
  190     16.42187    0.00000
  191     16.46475    0.00000
  192     16.47629    0.00000
  193     16.81477    0.00000
  194     16.88493    0.00000
  195     16.95117    0.00000
  196     16.97108    0.00000
  197     17.01568    0.00000
  198     17.11627    0.00000
  199     17.13354    0.00000
  200     17.32960    0.00000
  201     17.39037    0.00000
  202     17.41884    0.00000
  203     17.48521    0.00000

Timing:                              incl.     excl.
-----------------------------------------------------------
Hamiltonian:                         3.619     0.000   0.0% |
 Atomic:                             2.051     0.004   0.0% |
  XC Correction:                     2.047     2.047   0.1% |
 Calculate atomic Hamiltonians:      0.015     0.015   0.0% |
 Communicate:                        0.000     0.000   0.0% |
 Hartree integrate/restrict:         0.009     0.009   0.0% |
 Initialize Hamiltonian:             0.000     0.000   0.0% |
 Poisson:                            1.181     1.181   0.1% |
 XC 3D grid:                         0.360     0.360   0.0% |
 vbar:                               0.004     0.004   0.0% |
LCAO initialization:                14.768     0.294   0.0% |
 LCAO eigensolver:                   1.666     0.000   0.0% |
  Calculate projections:             0.008     0.008   0.0% |
  DenseAtomicCorrection:             0.009     0.009   0.0% |
  Distribute overlap matrix:         0.000     0.000   0.0% |
  Orbital Layouts:                   0.036     0.036   0.0% |
  Potential matrix:                  1.614     1.614   0.1% |
 LCAO to grid:                      11.664    11.664   0.6% |
 Set positions (LCAO WFS):           1.143     0.000   0.0% |
  Basic WFS set positions:           0.001     0.001   0.0% |
  Basis functions set positions:     0.000     0.000   0.0% |
  TCI: Calculate S, T, P:            1.142     1.142   0.1% |
SCF-cycle:                        1819.302     0.128   0.0% |
 Davidson:                        1426.924   330.019  17.9% |------|
  Apply hamiltonian:                34.858    34.858   1.9% ||
  Subspace diag:                   374.862     0.027   0.0% |
   calc_h_matrix:                  148.180   114.011   6.2% |-|
    Apply hamiltonian:              34.169    34.169   1.9% ||
   diagonalize:                      1.886     1.886   0.1% |
   rotate_psi:                     224.769   224.769  12.2% |----|
  calc. matrices:                  453.771   418.922  22.8% |--------|
   Apply hamiltonian:               34.850    34.850   1.9% ||
  diagonalize:                       6.814     6.814   0.4% |
  rotate_psi:                      226.600   226.600  12.3% |----|
 Density:                            8.003     0.004   0.0% |
  Atomic density matrices:           0.564     0.564   0.0% |
  Mix:                               4.076     4.076   0.2% |
  Multipole moments:                 0.149     0.149   0.0% |
  Pseudo density:                    3.210     3.207   0.2% |
   Symmetrize density:               0.003     0.003   0.0% |
 Hamiltonian:                      381.612     0.018   0.0% |
  Atomic:                          261.641     0.529   0.0% |
   XC Correction:                  261.111   261.111  14.2% |-----|
  Calculate atomic Hamiltonians:     2.299     2.299   0.1% |
  Communicate:                       0.001     0.001   0.0% |
  Hartree integrate/restrict:        1.148     1.148   0.1% |
  Poisson:                          62.524    62.524   3.4% ||
  XC 3D grid:                       53.398    53.398   2.9% ||
  vbar:                              0.583     0.583   0.0% |
 Orthonormalize:                     2.635     0.000   0.0% |
  calc_s_matrix:                     0.583     0.583   0.0% |
  inverse-cholesky:                  0.002     0.002   0.0% |
  projections:                       1.163     1.163   0.1% |
  rotate_psi_s:                      0.887     0.887   0.0% |
Set symmetry:                        0.001     0.001   0.0% |
Other:                               1.178     1.178   0.1% |
-----------------------------------------------------------
Total:                                      1838.868 100.0%

Memory usage: 1.08 GiB
Date: Sat Mar 30 02:14:54 2019
