<?xml version="1.0" encoding="ISO-8859-1"?>
<modeling>
 <generator>
  <i name="program" type="string">vasp </i>
  <i name="version" type="string">5.3.5  </i>
  <i name="subversion" type="string">31Mar14 (build Aug 29 2014 19:41:47) complex                          parallel </i>
  <i name="platform" type="string">LinuxIFC </i>
  <i name="date" type="string">2019 04 11 </i>
  <i name="time" type="string">13:02:12 </i>
 </generator>
 <incar>
  <i type="string" name="SYSTEM"> Fe4OF7_var_27</i>
  <i type="int" name="ISTART">     0</i>
  <i type="string" name="PREC">normal</i>
  <i type="string" name="ALGO"> VeryFast</i>
  <i type="int" name="ISPIN">     1</i>
  <i type="int" name="ICHARG">     2</i>
  <i type="int" name="NELM">   300</i>
  <i type="int" name="ISYM">     0</i>
  <i type="logical" name="LWAVE"> F  </i>
  <i type="int" name="NELM">   300</i>
 </incar>
 <kpoints>
  <generation param="Gamma">
   <v type="int" name="divisions">       1        1        1 </v>
   <v name="usershift">      0.00000000       0.00000000       0.00000000 </v>
   <v name="genvec1">      1.00000000       0.00000000       0.00000000 </v>
   <v name="genvec2">     -0.00000000       1.00000000       0.00000000 </v>
   <v name="genvec3">     -0.00000000       0.00000000       1.00000000 </v>
   <v name="shift">      0.00000000       0.00000000       0.00000000 </v>
  </generation>
  <varray name="kpointlist" >
   <v>       0.00000000       0.00000000       0.00000000 </v>
  </varray>
  <varray name="weights" >
   <v>       1.00000000 </v>
  </varray>
 </kpoints>
 <parameters>
  <separator name="general" >
   <i type="string" name="SYSTEM">Fe4OF7_var_27</i>
   <i type="logical" name="LCOMPAT"> F  </i>
  </separator>
  <separator name="electronic" >
   <i type="string" name="PREC">normal</i>
   <i name="ENMAX">    400.00000000</i>
   <i name="ENAUG">    613.61400000</i>
   <i name="EDIFF">      0.00010000</i>
   <i type="int" name="IALGO">    48</i>
   <i type="int" name="IWAVPR">    10</i>
   <i type="int" name="NBANDS">   104</i>
   <i name="NELECT">    174.00000000</i>
   <i type="int" name="TURBO">     0</i>
   <i type="int" name="IRESTART">     0</i>
   <i type="int" name="NREBOOT">     0</i>
   <i type="int" name="NMIN">     0</i>
   <i name="EREF">      0.00000000</i>
   <separator name="electronic smearing" >
    <i type="int" name="ISMEAR">     1</i>
    <i name="SIGMA">      0.20000000</i>
    <i name="KSPACING">      0.50000000</i>
    <i type="logical" name="KGAMMA"> T  </i>
   </separator>
   <separator name="electronic projectors" >
    <i type="logical" name="LREAL"> F  </i>
    <v name="ROPT">      0.00000000      0.00000000      0.00000000</v>
    <i type="int" name="LMAXPAW">  -100</i>
    <i type="int" name="LMAXMIX">     2</i>
    <i type="logical" name="NLSPLINE"> F  </i>
   </separator>
   <separator name="electronic startup" >
    <i type="int" name="ISTART">     0</i>
    <i type="int" name="ICHARG">     2</i>
    <i type="int" name="INIWAV">     1</i>
   </separator>
   <separator name="electronic spin" >
    <i type="int" name="ISPIN">     1</i>
    <i type="logical" name="LNONCOLLINEAR"> F  </i>
    <v name="MAGMOM">      1.00000000      1.00000000      1.00000000      1.00000000      1.00000000      1.00000000      1.00000000      1.00000000      1.00000000      1.00000000      1.00000000      1.00000000      1.00000000      1.00000000      1.00000000      1.00000000      1.00000000      1.00000000      1.00000000      1.00000000
      1.00000000      1.00000000      1.00000000      1.00000000</v>
    <i name="NUPDOWN">     -1.00000000</i>
    <i type="logical" name="LSORBIT"> F  </i>
    <v name="SAXIS">      0.00000000      0.00000000      1.00000000</v>
    <i type="logical" name="LSPIRAL"> F  </i>
    <v name="QSPIRAL">      0.00000000      0.00000000      0.00000000</v>
    <i type="logical" name="LZEROZ"> F  </i>
   </separator>
   <separator name="electronic exchange-correlation" >
    <i type="logical" name="LASPH"> F  </i>
    <i type="logical" name="LMETAGGA"> F  </i>
   </separator>
   <separator name="electronic convergence" >
    <i type="int" name="NELM">   300</i>
    <i type="int" name="NELMDL">   -12</i>
    <i type="int" name="NELMIN">     2</i>
    <i name="ENINI">    400.00000000</i>
    <separator name="electronic convergence detail" >
     <i type="logical" name="LDIAG"> T  </i>
     <i type="logical" name="LSUBROT"> F  </i>
     <i name="WEIMIN">      0.00000000</i>
     <i name="EBREAK">      0.00000024</i>
     <i name="DEPER">      0.30000000</i>
     <i type="int" name="NRMM">     4</i>
     <i name="TIME">      0.40000000</i>
    </separator>
   </separator>
   <separator name="electronic mixer" >
    <i name="AMIX">      0.40000000</i>
    <i name="BMIX">      1.00000000</i>
    <i name="AMIN">      0.10000000</i>
    <i name="AMIX_MAG">      1.60000000</i>
    <i name="BMIX_MAG">      1.00000000</i>
    <separator name="electronic mixer details" >
     <i type="int" name="IMIX">     4</i>
     <i type="int" name="MAXMIX">   -45</i>
     <i name="WC">    100.00000000</i>
     <i type="int" name="INIMIX">     1</i>
     <i type="int" name="MIXPRE">     1</i>
     <i type="int" name="MREMOVE">     5</i>
    </separator>
   </separator>
   <separator name="electronic dipolcorrection" >
    <i type="logical" name="LDIPOL"> F  </i>
    <i type="logical" name="LMONO"> F  </i>
    <i type="int" name="IDIPOL">     0</i>
    <i name="EPSILON">      1.00000000</i>
    <v name="DIPOL">   -100.00000000   -100.00000000   -100.00000000</v>
    <i name="EFIELD">      0.00000000</i>
   </separator>
  </separator>
  <separator name="grids" >
   <i type="int" name="NGX">    28</i>
   <i type="int" name="NGY">    24</i>
   <i type="int" name="NGZ">    54</i>
   <i type="int" name="NGXF">    56</i>
   <i type="int" name="NGYF">    48</i>
   <i type="int" name="NGZF">   108</i>
   <i type="logical" name="ADDGRID"> F  </i>
  </separator>
  <separator name="ionic" >
   <i type="int" name="NSW">     0</i>
   <i type="int" name="IBRION">    -1</i>
   <i type="int" name="ISIF">     2</i>
   <i name="PSTRESS">      0.00000000</i>
   <i name="EDIFFG">      0.00100000</i>
   <i type="int" name="NFREE">     0</i>
   <i name="POTIM">      0.50000000</i>
   <i name="SMASS">     -3.00000000</i>
   <i name="SCALEE">      1.00000000</i>
  </separator>
  <separator name="ionic md" >
   <i name="TEBEG">      0.00010000</i>
   <i name="TEEND">      0.00010000</i>
   <i type="int" name="NBLOCK">     1</i>
   <i type="int" name="KBLOCK">     1</i>
   <i type="int" name="NPACO">   256</i>
   <i name="APACO">     16.00000000</i>
  </separator>
  <separator name="symmetry" >
   <i type="int" name="ISYM">     0</i>
   <i name="SYMPREC">      0.00001000</i>
  </separator>
  <separator name="dos" >
   <i type="logical" name="LORBIT"> F  </i>
   <v name="RWIGS">     -1.00000000     -1.00000000     -1.00000000</v>
   <i type="int" name="NEDOS">   301</i>
   <i name="EMIN">     10.00000000</i>
   <i name="EMAX">    -10.00000000</i>
   <i name="EFERMI">      0.00000000</i>
  </separator>
  <separator name="writing" >
   <i type="int" name="NWRITE">     2</i>
   <i type="logical" name="LWAVE"> F  </i>
   <i type="logical" name="LCHARG"> T  </i>
   <i type="logical" name="LPARD"> F  </i>
   <i type="logical" name="LVTOT"> F  </i>
   <i type="logical" name="LVHAR"> F  </i>
   <i type="logical" name="LELF"> F  </i>
   <i type="logical" name="LOPTICS"> F  </i>
   <v name="STM">      0.00000000      0.00000000      0.00000000      0.00000000      0.00000000      0.00000000      0.00000000</v>
  </separator>
  <separator name="performance" >
   <i type="int" name="NPAR">     4</i>
   <i type="int" name="NSIM">     4</i>
   <i type="int" name="NBLK">    -1</i>
   <i type="logical" name="LPLANE"> T  </i>
   <i type="logical" name="LSCALAPACK"> T  </i>
   <i type="logical" name="LSCAAWARE"> F  </i>
   <i type="logical" name="LSCALU"> F  </i>
   <i type="logical" name="LASYNC"> F  </i>
   <i type="logical" name="LORBITALREAL"> F  </i>
  </separator>
  <separator name="miscellaneous" >
   <i type="int" name="IDIOT">     3</i>
   <i type="logical" name="LMUSIC"> F  </i>
   <v name="POMASS">     55.84700000     16.00000000     18.99800000</v>
   <v name="DARWINR">      0.00000000      0.00000000      0.00000000</v>
   <v name="DARWINV">      1.00000000      1.00000000      1.00000000</v>
   <i type="logical" name="LCORR"> T  </i>
  </separator>
  <i type="logical" name="GGA_COMPAT"> T  </i>
  <i type="logical" name="LBERRY"> F  </i>
  <i type="int" name="ICORELEVEL">     0</i>
  <i type="logical" name="LDAU"> F  </i>
  <i type="int" name="I_CONSTRAINED_M">     0</i>
  <separator name="electronic exchange-correlation" >
   <i type="string" name="GGA">--</i>
   <i type="int" name="VOSKOWN">     0</i>
   <i type="logical" name="LHFCALC"> F  </i>
   <i type="string" name="PRECFOCK"></i>
   <i type="logical" name="LSYMGRAD"> F  </i>
   <i type="logical" name="LHFONE"> F  </i>
   <i type="logical" name="LRHFCALC"> F  </i>
   <i type="logical" name="LTHOMAS"> F  </i>
   <i type="logical" name="LMODELHF"> F  </i>
   <i name="ENCUT4O">     -1.00000000</i>
   <i type="int" name="EXXOEP">     0</i>
   <i type="int" name="FOURORBIT">     0</i>
   <i name="AEXX">      0.00000000</i>
   <i name="HFALPHA">      0.00000000</i>
   <i name="MCALPHA">      0.00000000</i>
   <i name="ALDAX">      1.00000000</i>
   <i name="AGGAX">      1.00000000</i>
   <i name="ALDAC">      1.00000000</i>
   <i name="AGGAC">      1.00000000</i>
   <i type="int" name="NKREDX">     1</i>
   <i type="int" name="NKREDY">     1</i>
   <i type="int" name="NKREDZ">     1</i>
   <i type="logical" name="SHIFTRED"> F  </i>
   <i type="logical" name="ODDONLY"> F  </i>
   <i type="logical" name="EVENONLY"> F  </i>
   <i type="int" name="LMAXFOCK">     0</i>
   <i type="int" name="NMAXFOCKAE">     0</i>
   <i type="logical" name="LFOCKAEDFT"> F  </i>
   <i name="HFSCREEN">      0.00000000</i>
   <i name="HFSCREENC">      0.00000000</i>
   <i type="int" name="NBANDSGWLOW">     0</i>
  </separator>
  <separator name="vdW DFT" >
   <i type="logical" name="LUSE_VDW"> F  </i>
   <i name="Zab_VDW">     -0.84910000</i>
   <i name="PARAM1">      0.12340000</i>
   <i name="PARAM2">      1.00000000</i>
   <i name="PARAM3">      0.00000000</i>
  </separator>
  <separator name="model GW" >
   <i type="int" name="MODEL_GW">     0</i>
   <i name="MODEL_EPS0">      7.43672732</i>
   <i name="MODEL_ALPHA">      1.00000000</i>
  </separator>
  <separator name="linear response parameters" >
   <i type="logical" name="LEPSILON"> F  </i>
   <i type="logical" name="LRPA"> F  </i>
   <i type="logical" name="LNABLA"> F  </i>
   <i type="logical" name="LVEL"> F  </i>
   <i type="int" name="KINTER">     0</i>
   <i name="CSHIFT">      0.10000000</i>
   <i name="OMEGAMAX">     -1.00000000</i>
   <i name="DEG_THRESHOLD">      0.00200000</i>
  </separator>
  <separator name="orbital magnetization" >
   <i type="logical" name="NUCIND"> F  </i>
   <v name="MAGPOS">      0.00000000      0.00000000      0.00000000</v>
   <i type="logical" name="LNICSALL"> T  </i>
   <i type="logical" name="ORBITALMAG"> F  </i>
   <i type="logical" name="LMAGBLOCH"> F  </i>
   <i type="logical" name="LCHIMAG"> F  </i>
   <i type="logical" name="LGAUGE"> T  </i>
   <i type="int" name="MAGATOM">     0</i>
   <v name="MAGDIPOL">      0.00000000      0.00000000      0.00000000</v>
   <v name="AVECCONST">      0.00000000      0.00000000      0.00000000</v>
  </separator>
  <separator name="response functions" >
   <i type="logical" name="LADDER"> F  </i>
   <i type="logical" name="LFXC"> F  </i>
   <i type="logical" name="LHARTREE"> T  </i>
   <i type="int" name="IBSE">     0</i>
   <i type="logical" name="LTCTE"> F  </i>
   <i type="logical" name="LTETE"> F  </i>
   <i type="logical" name="LTRIPLET"> F  </i>
   <i type="logical" name="LFXCEPS"> F  </i>
   <i type="logical" name="LFXHEG"> F  </i>
   <i type="logical" name="L2ORDER"> F  </i>
   <i type="logical" name="LUSEW"> F  </i>
   <i name="ENCUTGW">     -2.00000000</i>
   <i name="ENCUTGWSOFT">     -2.00000000</i>
   <i name="ENCUTLF">     -1.00000000</i>
   <i type="int" name="LMAXMP2">    -1</i>
   <i name="SCISSOR">      0.00000000</i>
   <i type="int" name="NOMEGA">     0</i>
   <i type="int" name="NOMEGAR">     0</i>
   <i type="int" name="NBANDSGW">    -1</i>
   <i type="int" name="NBANDSO">    -1</i>
   <i type="int" name="NBANDSV">    -1</i>
   <i type="int" name="NELM">   300</i>
   <i type="int" name="DIM">     3</i>
   <i type="int" name="ANTIRES">     0</i>
   <i name="OMEGAMAX">    -30.00000000</i>
   <i name="OMEGAMIN">    -30.00000000</i>
   <i name="OMEGATL">   -200.00000000</i>
   <i type="int" name="OMEGAGRID">     0</i>
   <i name="CSHIFT">     -0.10000000</i>
   <i type="logical" name="SELFENERGY"> F  </i>
   <i type="logical" name="LSPECTRAL"> F  </i>
   <i type="logical" name="ODDONLYGW"> F  </i>
   <i type="logical" name="EVENONLYGW"> F  </i>
   <i type="int" name="NKREDLFX">     1</i>
   <i type="int" name="NKREDLFY">     1</i>
   <i type="int" name="NKREDLFZ">     1</i>
   <i type="int" name="MAXMEM">  1800</i>
   <i type="int" name="TELESCOPE">     0</i>
   <i type="int" name="TAUPAR">     1</i>
  </separator>
  <separator name="External order field" >
   <i name="OFIELD_KAPPA">      0.00000000</i>
   <v name="OFIELD_K">      0.00000000      0.00000000      0.00000000</v>
   <i name="OFIELD_Q6_NEAR">      0.00000000</i>
   <i name="OFIELD_Q6_FAR">      0.00000000</i>
   <i name="OFIELD_A">      0.00000000</i>
  </separator>
 </parameters>
 <atominfo>
  <atoms>      24 </atoms>
  <types>       3 </types>
  <array name="atoms" >
   <dimension dim="1">ion</dimension>
   <field type="string">element</field>
   <field type="int">atomtype</field>
   <set>
    <rc><c>Fe</c><c>   1</c></rc>
    <rc><c>Fe</c><c>   1</c></rc>
    <rc><c>Fe</c><c>   1</c></rc>
    <rc><c>Fe</c><c>   1</c></rc>
    <rc><c>Fe</c><c>   1</c></rc>
    <rc><c>Fe</c><c>   1</c></rc>
    <rc><c>Fe</c><c>   1</c></rc>
    <rc><c>Fe</c><c>   1</c></rc>
    <rc><c>O </c><c>   2</c></rc>
    <rc><c>O </c><c>   2</c></rc>
    <rc><c>F </c><c>   3</c></rc>
    <rc><c>F </c><c>   3</c></rc>
    <rc><c>F </c><c>   3</c></rc>
    <rc><c>F </c><c>   3</c></rc>
    <rc><c>F </c><c>   3</c></rc>
    <rc><c>F </c><c>   3</c></rc>
    <rc><c>F </c><c>   3</c></rc>
    <rc><c>F </c><c>   3</c></rc>
    <rc><c>F </c><c>   3</c></rc>
    <rc><c>F </c><c>   3</c></rc>
    <rc><c>F </c><c>   3</c></rc>
    <rc><c>F </c><c>   3</c></rc>
    <rc><c>F </c><c>   3</c></rc>
    <rc><c>F </c><c>   3</c></rc>
   </set>
  </array>
  <array name="atomtypes" >
   <dimension dim="1">type</dimension>
   <field type="int">atomspertype</field>
   <field type="string">element</field>
   <field>mass</field>
   <field>valence</field>
   <field type="string">pseudopotential</field>
   <set>
    <rc><c>   8</c><c>Fe</c><c>     55.84700000</c><c>      8.00000000</c><c>  PAW_PBE Fe 06Sep2000                  </c></rc>
    <rc><c>   2</c><c>O </c><c>     16.00000000</c><c>      6.00000000</c><c>  PAW_PBE O 08Apr2002                   </c></rc>
    <rc><c>  14</c><c>F </c><c>     18.99800000</c><c>      7.00000000</c><c>  PAW_PBE F 08Apr2002                   </c></rc>
   </set>
  </array>
 </atominfo>
 <structure name="initialpos" >
  <crystal>
   <varray name="basis" >
    <v>       5.71126900       0.00000000      -0.79026700 </v>
    <v>       0.00000000       4.78544200       0.00000000 </v>
    <v>       0.00000000       0.02623100      10.88396600 </v>
   </varray>
   <i name="volume">    297.46909295 </i>
   <varray name="rec_basis" >
    <v>       0.17509244       0.00000000       0.00000000 </v>
    <v>      -0.00006969       0.20896711      -0.00050362 </v>
    <v>       0.01271318       0.00000000       0.09187827 </v>
   </varray>
  </crystal>
  <varray name="positions" >
   <v>       0.24699400       0.25831700       0.74623300 </v>
   <v>       0.24699400       0.75149400       0.24623300 </v>
   <v>       0.51485700       0.24497600       0.49774200 </v>
   <v>       0.51485700       0.76149300       0.99879200 </v>
   <v>       0.75373900       0.23127500       0.26486200 </v>
   <v>       0.75373900       0.76872500       0.76486200 </v>
   <v>       0.99045900       0.24137200       0.99652900 </v>
   <v>       0.99045900       0.75862800       0.49652900 </v>
   <v>       0.77857200       0.05847800       0.41725200 </v>
   <v>       0.77857200       0.94152200       0.91725200 </v>
   <v>       0.01959000       0.05755600       0.18278600 </v>
   <v>       0.01370000       0.94244400       0.68278600 </v>
   <v>       0.22224900       0.44944100       0.57080400 </v>
   <v>       0.22224900       0.55055900       0.07080400 </v>
   <v>       0.27923300       0.05174700       0.92203700 </v>
   <v>       0.27923300       0.94825300       0.42203700 </v>
   <v>       0.48187500       0.45353000       0.31584000 </v>
   <v>       0.48187500       0.54647000       0.82055200 </v>
   <v>       0.52253600       0.03560000       0.67416600 </v>
   <v>       0.52253600       0.96440000       0.17416600 </v>
   <v>       0.72723500       0.44302000       0.09109400 </v>
   <v>       0.72235300       0.55698000       0.59109400 </v>
   <v>       0.97343300       0.45650500       0.81960400 </v>
   <v>       0.97343300       0.54349500       0.31960400 </v>
  </varray>
 </structure>
 <calculation>
  <scstep>
   <time name="diag">    0.10    0.14</time>
   <time name="diis">    0.16    0.24</time>
   <time name="orth">    0.01    0.02</time>
   <time name="total">    0.38    0.55</time>
   <energy>
    <i name="alphaZ">    636.82938916 </i>
    <i name="ewald"> -10629.96463802 </i>
    <i name="hartreedc">  -4379.34327816 </i>
    <i name="XCdc">    595.65134512 </i>
    <i name="pawpsdc">  12680.77512887 </i>
    <i name="pawaedc"> -12817.41364524 </i>
    <i name="eentropy">     -0.01838193 </i>
    <i name="bandstr">   1184.95028337 </i>
    <i name="atom">  14851.27451460 </i>
    <i name="e_fr_energy">   2122.74071776 </i>
    <i name="e_wo_entrp">   2122.75909970 </i>
    <i name="e_0_energy">   2122.74684507 </i>
   </energy>
  </scstep>
  <scstep>
   <time name="diag">    0.04    0.10</time>
   <time name="diis">    0.17    0.20</time>
   <time name="orth">    0.04    0.09</time>
   <time name="total">    0.26    0.40</time>
   <energy>
    <i name="e_fr_energy">    655.21551204 </i>
    <i name="e_wo_entrp">    655.30883661 </i>
    <i name="e_0_energy">    655.24662023 </i>
   </energy>
  </scstep>
  <scstep>
   <time name="diag">    0.34    0.59</time>
   <time name="diis">    0.10    0.19</time>
   <time name="orth">    0.06    0.11</time>
   <time name="total">    0.50    0.89</time>
   <energy>
    <i name="e_fr_energy">    231.16619572 </i>
    <i name="e_wo_entrp">    231.25118157 </i>
    <i name="e_0_energy">    231.19452434 </i>
   </energy>
  </scstep>
  <scstep>
   <time name="diag">    0.07    0.14</time>
   <time name="diis">    0.10    0.20</time>
   <time name="orth">    0.03    0.06</time>
   <time name="total">    0.20    0.40</time>
   <energy>
    <i name="e_fr_energy">     46.87069374 </i>
    <i name="e_wo_entrp">     46.91119885 </i>
    <i name="e_0_energy">     46.88419544 </i>
   </energy>
  </scstep>
  <scstep>
   <time name="diag">    0.05    0.10</time>
   <time name="diis">    0.12    0.18</time>
   <time name="orth">    0.11    0.21</time>
   <time name="total">    0.28    0.50</time>
   <energy>
    <i name="e_fr_energy">    -58.77842136 </i>
    <i name="e_wo_entrp">    -58.82550986 </i>
    <i name="e_0_energy">    -58.79411752 </i>
   </energy>
  </scstep>
  <scstep>
   <time name="diag">    0.03    0.07</time>
   <time name="diis">    0.09    0.18</time>
   <time name="orth">    0.03    0.06</time>
   <time name="total">    0.15    0.32</time>
   <energy>
    <i name="e_fr_energy">   -108.94078517 </i>
    <i name="e_wo_entrp">   -108.90836648 </i>
    <i name="e_0_energy">   -108.92997894 </i>
   </energy>
  </scstep>
  <scstep>
   <time name="diag">    0.09    0.16</time>
   <time name="diis">    0.14    0.14</time>
   <time name="orth">    0.02    0.02</time>
   <time name="total">    0.25    0.32</time>
   <energy>
    <i name="e_fr_energy">   -134.57481976 </i>
    <i name="e_wo_entrp">   -134.56239525 </i>
    <i name="e_0_energy">   -134.57067826 </i>
   </energy>
  </scstep>
  <scstep>
   <time name="diag">    0.03    0.07</time>
   <time name="diis">    0.14    0.17</time>
   <time name="orth">    0.03    0.04</time>
   <time name="total">    0.21    0.29</time>
   <energy>
    <i name="e_fr_energy">   -145.13935476 </i>
    <i name="e_wo_entrp">   -145.14479075 </i>
    <i name="e_0_energy">   -145.14116676 </i>
   </energy>
  </scstep>
  <scstep>
   <time name="diag">    0.33    0.46</time>
   <time name="diis">    0.46    0.60</time>
   <time name="orth">    0.02    0.03</time>
   <time name="total">    0.88    1.16</time>
   <energy>
    <i name="e_fr_energy">   -155.25711898 </i>
    <i name="e_wo_entrp">   -155.30246041 </i>
    <i name="e_0_energy">   -155.27223279 </i>
   </energy>
  </scstep>
  <scstep>
   <time name="diag">    0.11    0.17</time>
   <time name="diis">    0.34    0.45</time>
   <time name="orth">    0.01    0.02</time>
   <time name="total">    0.46    0.64</time>
   <energy>
    <i name="e_fr_energy">   -155.65664046 </i>
    <i name="e_wo_entrp">   -155.71879061 </i>
    <i name="e_0_energy">   -155.67735717 </i>
   </energy>
  </scstep>
  <scstep>
   <time name="diag">    0.05    0.07</time>
   <time name="diis">    0.30    0.43</time>
   <time name="orth">    0.01    0.02</time>
   <time name="total">    0.36    0.52</time>
   <energy>
    <i name="e_fr_energy">   -155.85078081 </i>
    <i name="e_wo_entrp">   -155.90686350 </i>
    <i name="e_0_energy">   -155.86947504 </i>
   </energy>
  </scstep>
  <scstep>
   <time name="diag">    0.03    0.07</time>
   <time name="diis">    0.24    0.38</time>
   <time name="orth">    0.02    0.03</time>
   <time name="total">    0.33    0.52</time>
   <energy>
    <i name="e_fr_energy">   -155.94115067 </i>
    <i name="e_wo_entrp">   -155.98878358 </i>
    <i name="e_0_energy">   -155.95702830 </i>
   </energy>
  </scstep>
  <scstep>
   <time name="diag">    0.07    0.12</time>
   <time name="diis">    0.28    0.39</time>
   <time name="orth">    0.03    0.06</time>
   <time name="total">    0.47    0.67</time>
   <energy>
    <i name="e_fr_energy">   -148.94739995 </i>
    <i name="e_wo_entrp">   -148.98718100 </i>
    <i name="e_0_energy">   -148.96066030 </i>
   </energy>
  </scstep>
  <scstep>
   <time name="diag">    0.06    0.06</time>
   <time name="diis">    0.19    0.29</time>
   <time name="orth">    0.01    0.01</time>
   <time name="total">    0.39    0.51</time>
   <energy>
    <i name="e_fr_energy">   -184.93988267 </i>
    <i name="e_wo_entrp">   -184.87453565 </i>
    <i name="e_0_energy">   -184.91810033 </i>
   </energy>
  </scstep>
  <scstep>
   <time name="diag">    0.10    0.14</time>
   <time name="diis">    0.24    0.36</time>
   <time name="orth">    0.04    0.07</time>
   <time name="total">    0.46    0.68</time>
   <energy>
    <i name="e_fr_energy">   -157.50889726 </i>
    <i name="e_wo_entrp">   -157.48023976 </i>
    <i name="e_0_energy">   -157.49934476 </i>
   </energy>
  </scstep>
  <scstep>
   <time name="diag">    0.03    0.05</time>
   <time name="diis">    0.23    0.32</time>
   <time name="orth">    0.02    0.02</time>
   <time name="total">    0.39    0.55</time>
   <energy>
    <i name="e_fr_energy">   -141.11294755 </i>
    <i name="e_wo_entrp">   -141.07204955 </i>
    <i name="e_0_energy">   -141.09931488 </i>
   </energy>
  </scstep>
  <scstep>
   <time name="diag">    0.15    0.15</time>
   <time name="diis">    0.22    0.39</time>
   <time name="orth">    0.02    0.02</time>
   <time name="total">    0.56    0.77</time>
   <energy>
    <i name="e_fr_energy">   -144.03005431 </i>
    <i name="e_wo_entrp">   -143.99285227 </i>
    <i name="e_0_energy">   -144.01765363 </i>
   </energy>
  </scstep>
  <scstep>
   <time name="diag">    0.03    0.03</time>
   <time name="diis">    0.37    0.45</time>
   <time name="orth">    0.02    0.03</time>
   <time name="total">    0.48    0.60</time>
   <energy>
    <i name="e_fr_energy">   -172.42349420 </i>
    <i name="e_wo_entrp">   -172.36206110 </i>
    <i name="e_0_energy">   -172.40301650 </i>
   </energy>
  </scstep>
  <scstep>
   <time name="diag">    0.08    0.08</time>
   <time name="diis">    0.23    0.34</time>
   <time name="orth">    0.02    0.04</time>
   <time name="total">    0.42    0.62</time>
   <energy>
    <i name="e_fr_energy">   -150.54939002 </i>
    <i name="e_wo_entrp">   -150.49384431 </i>
    <i name="e_0_energy">   -150.53087478 </i>
   </energy>
  </scstep>
  <scstep>
   <time name="diag">    0.04    0.04</time>
   <time name="diis">    0.20    0.26</time>
   <time name="orth">    0.02    0.02</time>
   <time name="total">    0.40    0.51</time>
   <energy>
    <i name="e_fr_energy">   -137.11315429 </i>
    <i name="e_wo_entrp">   -137.02175893 </i>
    <i name="e_0_energy">   -137.08268917 </i>
   </energy>
  </scstep>
  <scstep>
   <time name="diag">    0.05    0.10</time>
   <time name="diis">    0.22    0.33</time>
   <time name="orth">    0.01    0.02</time>
   <time name="total">    0.36    0.57</time>
   <energy>
    <i name="e_fr_energy">   -145.36890312 </i>
    <i name="e_wo_entrp">   -145.37440635 </i>
    <i name="e_0_energy">   -145.37073753 </i>
   </energy>
  </scstep>
  <scstep>
   <time name="diag">    0.05    0.07</time>
   <time name="diis">    0.34    0.38</time>
   <time name="orth">    0.10    0.18</time>
   <time name="total">    0.68    1.02</time>
   <energy>
    <i name="e_fr_energy">   -136.75905919 </i>
    <i name="e_wo_entrp">   -136.77345281 </i>
    <i name="e_0_energy">   -136.76385707 </i>
   </energy>
  </scstep>
  <scstep>
   <time name="diag">    0.06    0.11</time>
   <time name="diis">    0.32    0.36</time>
   <time name="orth">    0.20    0.20</time>
   <time name="total">    0.66    0.79</time>
   <energy>
    <i name="e_fr_energy">   -134.38601920 </i>
    <i name="e_wo_entrp">   -134.44013376 </i>
    <i name="e_0_energy">   -134.40405739 </i>
   </energy>
  </scstep>
  <scstep>
   <time name="diag">    0.03    0.06</time>
   <time name="diis">    0.25    0.39</time>
   <time name="orth">    0.01    0.02</time>
   <time name="total">    0.35    0.57</time>
   <energy>
    <i name="e_fr_energy">   -135.65582637 </i>
    <i name="e_wo_entrp">   -135.63145086 </i>
    <i name="e_0_energy">   -135.64770120 </i>
   </energy>
  </scstep>
  <scstep>
   <time name="diag">    0.06    0.07</time>
   <time name="diis">    0.19    0.31</time>
   <time name="orth">    0.02    0.03</time>
   <time name="total">    0.39    0.59</time>
   <energy>
    <i name="e_fr_energy">   -133.57655264 </i>
    <i name="e_wo_entrp">   -133.52124158 </i>
    <i name="e_0_energy">   -133.55811562 </i>
   </energy>
  </scstep>
  <scstep>
   <time name="diag">    0.11    0.17</time>
   <time name="diis">    0.34    0.41</time>
   <time name="orth">    0.06    0.06</time>
   <time name="total">    0.60    0.75</time>
   <energy>
    <i name="e_fr_energy">   -132.64395388 </i>
    <i name="e_wo_entrp">   -132.58610685 </i>
    <i name="e_0_energy">   -132.62467154 </i>
   </energy>
  </scstep>
  <scstep>
   <time name="diag">    0.05    0.06</time>
   <time name="diis">    0.31    0.43</time>
   <time name="orth">    0.03    0.06</time>
   <time name="total">    0.51    0.77</time>
   <energy>
    <i name="e_fr_energy">   -132.48958145 </i>
    <i name="e_wo_entrp">   -132.46037451 </i>
    <i name="e_0_energy">   -132.47984580 </i>
   </energy>
  </scstep>
  <scstep>
   <time name="diag">    0.07    0.10</time>
   <time name="diis">    0.35    0.44</time>
   <time name="orth">    0.01    0.02</time>
   <time name="total">    0.54    0.67</time>
   <energy>
    <i name="e_fr_energy">   -132.51987313 </i>
    <i name="e_wo_entrp">   -132.47493882 </i>
    <i name="e_0_energy">   -132.50489503 </i>
   </energy>
  </scstep>
  <scstep>
   <time name="diag">    0.03    0.07</time>
   <time name="diis">    0.26    0.49</time>
   <time name="orth">    0.14    0.18</time>
   <time name="total">    0.53    0.90</time>
   <energy>
    <i name="e_fr_energy">   -132.58054230 </i>
    <i name="e_wo_entrp">   -132.57191647 </i>
    <i name="e_0_energy">   -132.57766703 </i>
   </energy>
  </scstep>
  <scstep>
   <time name="diag">    0.07    0.14</time>
   <time name="diis">    0.33    0.41</time>
   <time name="orth">    0.03    0.04</time>
   <time name="total">    0.49    0.68</time>
   <energy>
    <i name="e_fr_energy">   -132.63485603 </i>
    <i name="e_wo_entrp">   -132.60620059 </i>
    <i name="e_0_energy">   -132.62530422 </i>
   </energy>
  </scstep>
  <scstep>
   <time name="diag">    0.05    0.06</time>
   <time name="diis">    0.34    0.49</time>
   <time name="orth">    0.01    0.01</time>
   <time name="total">    0.65    0.96</time>
   <energy>
    <i name="e_fr_energy">   -132.63641406 </i>
    <i name="e_wo_entrp">   -132.63898562 </i>
    <i name="e_0_energy">   -132.63727124 </i>
   </energy>
  </scstep>
  <scstep>
   <time name="diag">    0.14    0.26</time>
   <time name="diis">    0.38    0.44</time>
   <time name="orth">    0.04    0.04</time>
   <time name="total">    0.64    0.84</time>
   <energy>
    <i name="e_fr_energy">   -132.63512861 </i>
    <i name="e_wo_entrp">   -132.63487819 </i>
    <i name="e_0_energy">   -132.63504513 </i>
   </energy>
  </scstep>
  <scstep>
   <time name="diag">    0.03    0.06</time>
   <time name="diis">    0.22    0.31</time>
   <time name="orth">    0.02    0.02</time>
   <time name="total">    0.35    0.49</time>
   <energy>
    <i name="e_fr_energy">   -132.63041098 </i>
    <i name="e_wo_entrp">   -132.63519582 </i>
    <i name="e_0_energy">   -132.63200593 </i>
   </energy>
  </scstep>
  <scstep>
   <time name="diag">    0.06    0.06</time>
   <time name="diis">    0.24    0.35</time>
   <time name="orth">    0.03    0.05</time>
   <time name="total">    0.46    0.61</time>
   <energy>
    <i name="e_fr_energy">   -132.62971443 </i>
    <i name="e_wo_entrp">   -132.63794063 </i>
    <i name="e_0_energy">   -132.63245650 </i>
   </energy>
  </scstep>
  <scstep>
   <time name="diag">    0.07    0.08</time>
   <time name="diis">    0.28    0.33</time>
   <time name="orth">    0.01    0.01</time>
   <time name="total">    0.47    0.60</time>
   <energy>
    <i name="e_fr_energy">   -132.62880339 </i>
    <i name="e_wo_entrp">   -132.64130749 </i>
    <i name="e_0_energy">   -132.63297142 </i>
   </energy>
  </scstep>
  <scstep>
   <time name="diag">    0.05    0.05</time>
   <time name="diis">    0.20    0.31</time>
   <time name="orth">    0.01    0.02</time>
   <time name="total">    0.31    0.46</time>
   <energy>
    <i name="e_fr_energy">   -132.62864990 </i>
    <i name="e_wo_entrp">   -132.64198819 </i>
    <i name="e_0_energy">   -132.63309599 </i>
   </energy>
  </scstep>
  <scstep>
   <time name="diag">    0.26    0.36</time>
   <time name="diis">    0.17    0.20</time>
   <time name="orth">    0.01    0.01</time>
   <time name="total">    0.51    0.69</time>
   <energy>
    <i name="e_fr_energy">   -132.62819518 </i>
    <i name="e_wo_entrp">   -132.64214782 </i>
    <i name="e_0_energy">   -132.63284606 </i>
   </energy>
  </scstep>
  <scstep>
   <time name="diag">    0.03    0.03</time>
   <time name="diis">    0.17    0.19</time>
   <time name="orth">    0.04    0.10</time>
   <time name="total">    0.30    0.42</time>
   <energy>
    <i name="e_fr_energy">   -132.62799780 </i>
    <i name="e_wo_entrp">   -132.64227117 </i>
    <i name="e_0_energy">   -132.63275559 </i>
   </energy>
  </scstep>
  <scstep>
   <time name="diag">    0.04    0.07</time>
   <time name="diis">    0.17    0.24</time>
   <time name="orth">    0.01    0.02</time>
   <time name="total">    0.27    0.39</time>
   <energy>
    <i name="alphaZ">    636.82938916 </i>
    <i name="ewald"> -10629.96463802 </i>
    <i name="hartreedc">  -4458.17426438 </i>
    <i name="XCdc">    604.86970945 </i>
    <i name="pawpsdc">  14888.73239756 </i>
    <i name="pawaedc"> -15029.51561313 </i>
    <i name="eentropy">      0.01468196 </i>
    <i name="bandstr">   -996.69408918 </i>
    <i name="atom">  14851.27451460 </i>
    <i name="e_fr_energy">   -132.62791198 </i>
    <i name="e_wo_entrp">   -132.64259394 </i>
    <i name="e_0_energy">   -132.63280597 </i>
   </energy>
  </scstep>
  <structure>
   <crystal>
    <varray name="basis" >
     <v>       5.71126900       0.00000000      -0.79026700 </v>
     <v>       0.00000000       4.78544200       0.00000000 </v>
     <v>       0.00000000       0.02623100      10.88396600 </v>
    </varray>
    <i name="volume">    297.46909295 </i>
    <varray name="rec_basis" >
     <v>       0.17509244       0.00000000       0.00000000 </v>
     <v>      -0.00006969       0.20896711      -0.00050362 </v>
     <v>       0.01271318       0.00000000       0.09187827 </v>
    </varray>
   </crystal>
   <varray name="positions" >
    <v>       0.24699400       0.25831700       0.74623300 </v>
    <v>       0.24699400       0.75149400       0.24623300 </v>
    <v>       0.51485700       0.24497600       0.49774200 </v>
    <v>       0.51485700       0.76149300       0.99879200 </v>
    <v>       0.75373900       0.23127500       0.26486200 </v>
    <v>       0.75373900       0.76872500       0.76486200 </v>
    <v>       0.99045900       0.24137200       0.99652900 </v>
    <v>       0.99045900       0.75862800       0.49652900 </v>
    <v>       0.77857200       0.05847800       0.41725200 </v>
    <v>       0.77857200       0.94152200       0.91725200 </v>
    <v>       0.01959000       0.05755600       0.18278600 </v>
    <v>       0.01370000       0.94244400       0.68278600 </v>
    <v>       0.22224900       0.44944100       0.57080400 </v>
    <v>       0.22224900       0.55055900       0.07080400 </v>
    <v>       0.27923300       0.05174700       0.92203700 </v>
    <v>       0.27923300       0.94825300       0.42203700 </v>
    <v>       0.48187500       0.45353000       0.31584000 </v>
    <v>       0.48187500       0.54647000       0.82055200 </v>
    <v>       0.52253600       0.03560000       0.67416600 </v>
    <v>       0.52253600       0.96440000       0.17416600 </v>
    <v>       0.72723500       0.44302000       0.09109400 </v>
    <v>       0.72235300       0.55698000       0.59109400 </v>
    <v>       0.97343300       0.45650500       0.81960400 </v>
    <v>       0.97343300       0.54349500       0.31960400 </v>
   </varray>
  </structure>
  <varray name="forces" >
   <v>       0.10444962      -0.41731499      -0.13287245 </v>
   <v>       0.22136950       0.00586873      -0.27521182 </v>
   <v>       0.96523613      -0.76834598      -0.71756650 </v>
   <v>       0.99948706       0.49962099      -0.84249804 </v>
   <v>       0.26594803       0.28662106      -0.27465294 </v>
   <v>       0.09599583      -0.22623329      -0.08818333 </v>
   <v>      -0.81869814      -1.21775431      -0.61183339 </v>
   <v>      -0.91176141       1.28019027      -0.64960199 </v>
   <v>      -0.49004146      -0.18996069       1.36901020 </v>
   <v>      -0.46005958       0.24970959       1.40042351 </v>
   <v>       0.09152508      -0.35546758       0.04539820 </v>
   <v>       0.27851179       0.44716953      -0.02678811 </v>
   <v>       0.03793064      -0.11041956       0.27787139 </v>
   <v>       0.05327909       0.22675370       0.29505569 </v>
   <v>      -0.28973270       0.33723816      -0.01866014 </v>
   <v>      -0.24142063      -0.28573442      -0.05797659 </v>
   <v>      -0.27786862      -0.11319236       0.58616791 </v>
   <v>      -0.17716556       0.19162161       0.33865270 </v>
   <v>      -0.31000325       0.73218577       0.14402804 </v>
   <v>      -0.26506762      -0.64631172       0.15460102 </v>
   <v>       0.10516698       0.05641013      -0.87493607 </v>
   <v>       0.20641233      -0.05386029      -0.91177421 </v>
   <v>       0.41227841      -0.33793016       0.41757570 </v>
   <v>       0.40422848       0.40913579       0.45377122 </v>
  </varray>
  <varray name="stress" >
   <v>    -242.38283414       0.19987628      20.12105219 </v>
   <v>       0.19987609    -258.63244811      -1.66522613 </v>
   <v>      20.12105255      -1.66522614    -289.11005046 </v>
  </varray>
  <energy>
   <i name="e_fr_energy">   -132.62791198 </i>
   <i name="e_wo_entrp">   -132.63280597 </i>
   <i name="e_0_energy">      0.01468196 </i>
  </energy>
  <time name="totalsc">   17.85   25.77</time>
  <eigenvalues>
   <array>
    <dimension dim="1">band</dimension>
    <dimension dim="2">kpoint</dimension>
    <dimension dim="3">spin</dimension>
    <field>eigene</field>
    <field>occ</field>
    <set>
     <set comment="spin 1">
      <set comment="kpoint 1">
       <r>  -22.6616    1.0000 </r>
       <r>  -22.5783    1.0000 </r>
       <r>  -22.3428    1.0000 </r>
       <r>  -22.3040    1.0000 </r>
       <r>  -22.2813    1.0000 </r>
       <r>  -22.2458    1.0000 </r>
       <r>  -22.1976    1.0000 </r>
       <r>  -22.1632    1.0000 </r>
       <r>  -22.1311    1.0000 </r>
       <r>  -22.1026    1.0000 </r>
       <r>  -21.9711    1.0000 </r>
       <r>  -21.8938    1.0000 </r>
       <r>  -21.8117    1.0000 </r>
       <r>  -21.7795    1.0000 </r>
       <r>  -16.7146    1.0000 </r>
       <r>  -16.7051    1.0000 </r>
       <r>   -6.1025    1.0000 </r>
       <r>   -5.7524    1.0000 </r>
       <r>   -5.3392    1.0000 </r>
       <r>   -5.1975    1.0000 </r>
       <r>   -5.1783    1.0000 </r>
       <r>   -5.0249    1.0000 </r>
       <r>   -4.9821    1.0000 </r>
       <r>   -4.8990    1.0000 </r>
       <r>   -4.8423    1.0000 </r>
       <r>   -4.8095    1.0000 </r>
       <r>   -4.7007    1.0000 </r>
       <r>   -4.5574    1.0000 </r>
       <r>   -4.5419    1.0000 </r>
       <r>   -4.5221    1.0000 </r>
       <r>   -4.4017    1.0000 </r>
       <r>   -4.3610    1.0000 </r>
       <r>   -4.3224    1.0000 </r>
       <r>   -4.2738    1.0000 </r>
       <r>   -4.2633    1.0000 </r>
       <r>   -4.1994    1.0000 </r>
       <r>   -4.1785    1.0000 </r>
       <r>   -4.1343    1.0000 </r>
       <r>   -4.0182    1.0000 </r>
       <r>   -3.9989    1.0000 </r>
       <r>   -3.9952    1.0000 </r>
       <r>   -3.9208    1.0000 </r>
       <r>   -3.8956    1.0000 </r>
       <r>   -3.8596    1.0000 </r>
       <r>   -3.6844    1.0000 </r>
       <r>   -3.5999    1.0000 </r>
       <r>   -3.4178    1.0000 </r>
       <r>   -3.3857    1.0000 </r>
       <r>   -3.3209    1.0000 </r>
       <r>   -3.2475    1.0000 </r>
       <r>   -3.0456    1.0000 </r>
       <r>   -3.0028    1.0000 </r>
       <r>   -2.9567    1.0000 </r>
       <r>   -2.9110    1.0000 </r>
       <r>   -2.7762    1.0000 </r>
       <r>   -2.7226    1.0000 </r>
       <r>   -2.6959    1.0000 </r>
       <r>   -2.6356    1.0000 </r>
       <r>   -2.4557    1.0000 </r>
       <r>   -2.4121    1.0000 </r>
       <r>   -2.3443    1.0000 </r>
       <r>   -2.2562    1.0000 </r>
       <r>   -1.5481    1.0000 </r>
       <r>   -1.5298    1.0000 </r>
       <r>    0.9543    1.0000 </r>
       <r>    0.9667    1.0000 </r>
       <r>    1.0396    1.0000 </r>
       <r>    1.0520    1.0001 </r>
       <r>    1.0800    1.0001 </r>
       <r>    1.0849    1.0001 </r>
       <r>    1.1042    1.0002 </r>
       <r>    1.1423    1.0006 </r>
       <r>    1.2052    1.0024 </r>
       <r>    1.2295    1.0038 </r>
       <r>    1.2805    1.0092 </r>
       <r>    1.2989    1.0121 </r>
       <r>    1.3321    1.0186 </r>
       <r>    1.3504    1.0228 </r>
       <r>    1.3853    1.0305 </r>
       <r>    1.4347    1.0352 </r>
       <r>    1.4684    1.0268 </r>
       <r>    1.4762    1.0227 </r>
       <r>    1.5128    0.9886 </r>
       <r>    1.5515    0.9205 </r>
       <r>    1.5863    0.8274 </r>
       <r>    1.6015    0.7776 </r>
       <r>    1.6202    0.7100 </r>
       <r>    1.7041    0.3649 </r>
       <r>    1.7137    0.3268 </r>
       <r>    1.8529   -0.0124 </r>
       <r>    1.9278   -0.0350 </r>
       <r>    1.9753   -0.0268 </r>
       <r>    2.0179   -0.0172 </r>
       <r>    2.0869   -0.0062 </r>
       <r>    2.1441   -0.0021 </r>
       <r>    2.1660   -0.0013 </r>
       <r>    2.4044   -0.0000 </r>
       <r>    2.4946   -0.0000 </r>
       <r>    2.8356   -0.0000 </r>
       <r>    2.9102   -0.0000 </r>
       <r>    2.9452   -0.0000 </r>
       <r>    2.9854   -0.0000 </r>
       <r>    3.0877   -0.0000 </r>
       <r>    3.2792   -0.0000 </r>
      </set>
     </set>
    </set>
   </array>
  </eigenvalues>
  <separator name="orbital magnetization" >
   <v name="MAGDIPOLOUT">      0.00000000      0.00000000      0.00000000</v>
  </separator>
  <dos>
   <i name="efermi">      1.67171640 </i>
   <total>
    <array>
     <dimension dim="1">gridpoints</dimension>
     <dimension dim="2">spin</dimension>
     <field>energy</field>
     <field>total</field>
     <field>integrated</field>
     <set>
      <set comment="spin 1">
       <r>   -24.6616     0.0000     0.0000 </r>
       <r>   -24.5618     0.0000     0.0000 </r>
       <r>   -24.4620     0.0000     0.0000 </r>
       <r>   -24.3622     0.0000     0.0000 </r>
       <r>   -24.2624    -0.0000    -0.0000 </r>
       <r>   -24.1626    -0.0000    -0.0000 </r>
       <r>   -24.0628    -0.0000    -0.0000 </r>
       <r>   -23.9630    -0.0000    -0.0000 </r>
       <r>   -23.8632    -0.0000    -0.0000 </r>
       <r>   -23.7634    -0.0000    -0.0000 </r>
       <r>   -23.6636    -0.0000    -0.0000 </r>
       <r>   -23.5638    -0.0000    -0.0000 </r>
       <r>   -23.4640    -0.0000    -0.0000 </r>
       <r>   -23.3642    -0.0001    -0.0000 </r>
       <r>   -23.2644    -0.0018    -0.0002 </r>
       <r>   -23.1646    -0.0226    -0.0024 </r>
       <r>   -23.0648    -0.1590    -0.0183 </r>
       <r>   -22.9650    -0.5546    -0.0737 </r>
       <r>   -22.8652    -0.4343    -0.1170 </r>
       <r>   -22.7654     3.0147     0.1839 </r>
       <r>   -22.6656    10.0527     1.1871 </r>
       <r>   -22.5658    13.3984     2.5243 </r>
       <r>   -22.4660    12.0166     3.7236 </r>
       <r>   -22.3662    19.9546     5.7151 </r>
       <r>   -22.2663    39.3726     9.6446 </r>
       <r>   -22.1665    50.0202    14.6368 </r>
       <r>   -22.0667    41.5506    18.7837 </r>
       <r>   -21.9669    28.6465    21.6426 </r>
       <r>   -21.8671    25.1409    24.1518 </r>
       <r>   -21.7673    23.4339    26.4906 </r>
       <r>   -21.6675    13.8812    27.8759 </r>
       <r>   -21.5677     3.1630    28.1916 </r>
       <r>   -21.4679    -0.9376    28.0980 </r>
       <r>   -21.3681    -0.7605    28.0221 </r>
       <r>   -21.2683    -0.1944    28.0027 </r>
       <r>   -21.1685    -0.0254    28.0002 </r>
       <r>   -21.0687    -0.0019    28.0000 </r>
       <r>   -20.9689    -0.0001    28.0000 </r>
       <r>   -20.8691    -0.0000    28.0000 </r>
       <r>   -20.7693    -0.0000    28.0000 </r>
       <r>   -20.6695    -0.0000    28.0000 </r>
       <r>   -20.5697    -0.0000    28.0000 </r>
       <r>   -20.4699    -0.0000    28.0000 </r>
       <r>   -20.3701     0.0000    28.0000 </r>
       <r>   -20.2703     0.0000    28.0000 </r>
       <r>   -20.1705     0.0000    28.0000 </r>
       <r>   -20.0707     0.0000    28.0000 </r>
       <r>   -19.9709     0.0000    28.0000 </r>
       <r>   -19.8711     0.0000    28.0000 </r>
       <r>   -19.7713     0.0000    28.0000 </r>
       <r>   -19.6715     0.0000    28.0000 </r>
       <r>   -19.5717     0.0000    28.0000 </r>
       <r>   -19.4719     0.0000    28.0000 </r>
       <r>   -19.3721     0.0000    28.0000 </r>
       <r>   -19.2723     0.0000    28.0000 </r>
       <r>   -19.1725     0.0000    28.0000 </r>
       <r>   -19.0727     0.0000    28.0000 </r>
       <r>   -18.9729     0.0000    28.0000 </r>
       <r>   -18.8731     0.0000    28.0000 </r>
       <r>   -18.7733     0.0000    28.0000 </r>
       <r>   -18.6735     0.0000    28.0000 </r>
       <r>   -18.5736     0.0000    28.0000 </r>
       <r>   -18.4738     0.0000    28.0000 </r>
       <r>   -18.3740    -0.0000    28.0000 </r>
       <r>   -18.2742    -0.0000    28.0000 </r>
       <r>   -18.1744    -0.0000    28.0000 </r>
       <r>   -18.0746    -0.0000    28.0000 </r>
       <r>   -17.9748    -0.0000    28.0000 </r>
       <r>   -17.8750    -0.0000    28.0000 </r>
       <r>   -17.7752    -0.0000    28.0000 </r>
       <r>   -17.6754    -0.0000    28.0000 </r>
       <r>   -17.5756    -0.0000    28.0000 </r>
       <r>   -17.4758    -0.0000    28.0000 </r>
       <r>   -17.3760    -0.0005    27.9999 </r>
       <r>   -17.2762    -0.0088    27.9991 </r>
       <r>   -17.1764    -0.0858    27.9905 </r>
       <r>   -17.0766    -0.4332    27.9473 </r>
       <r>   -16.9768    -0.8266    27.8648 </r>
       <r>   -16.8770     1.4184    28.0063 </r>
       <r>   -16.7772     9.2478    28.9293 </r>
       <r>   -16.6774    16.1450    30.5406 </r>
       <r>   -16.5776    12.4308    31.7812 </r>
       <r>   -16.4778     3.5804    32.1386 </r>
       <r>   -16.3780    -0.5724    32.0815 </r>
       <r>   -16.2782    -0.6297    32.0186 </r>
       <r>   -16.1784    -0.1640    32.0022 </r>
       <r>   -16.0786    -0.0209    32.0002 </r>
       <r>   -15.9788    -0.0015    32.0000 </r>
       <r>   -15.8790    -0.0001    32.0000 </r>
       <r>   -15.7792    -0.0000    32.0000 </r>
       <r>   -15.6794    -0.0000    32.0000 </r>
       <r>   -15.5796    -0.0000    32.0000 </r>
       <r>   -15.4798    -0.0000    32.0000 </r>
       <r>   -15.3800     0.0000    32.0000 </r>
       <r>   -15.2802     0.0000    32.0000 </r>
       <r>   -15.1804     0.0000    32.0000 </r>
       <r>   -15.0806     0.0000    32.0000 </r>
       <r>   -14.9807     0.0000    32.0000 </r>
       <r>   -14.8809     0.0000    32.0000 </r>
       <r>   -14.7811     0.0000    32.0000 </r>
       <r>   -14.6813     0.0000    32.0000 </r>
       <r>   -14.5815     0.0000    32.0000 </r>
       <r>   -14.4817     0.0000    32.0000 </r>
       <r>   -14.3819     0.0000    32.0000 </r>
       <r>   -14.2821     0.0000    32.0000 </r>
       <r>   -14.1823     0.0000    32.0000 </r>
       <r>   -14.0825     0.0000    32.0000 </r>
       <r>   -13.9827     0.0000    32.0000 </r>
       <r>   -13.8829     0.0000    32.0000 </r>
       <r>   -13.7831     0.0000    32.0000 </r>
       <r>   -13.6833     0.0000    32.0000 </r>
       <r>   -13.5835     0.0000    32.0000 </r>
       <r>   -13.4837     0.0000    32.0000 </r>
       <r>   -13.3839     0.0000    32.0000 </r>
       <r>   -13.2841     0.0000    32.0000 </r>
       <r>   -13.1843     0.0000    32.0000 </r>
       <r>   -13.0845     0.0000    32.0000 </r>
       <r>   -12.9847     0.0000    32.0000 </r>
       <r>   -12.8849     0.0000    32.0000 </r>
       <r>   -12.7851     0.0000    32.0000 </r>
       <r>   -12.6853     0.0000    32.0000 </r>
       <r>   -12.5855     0.0000    32.0000 </r>
       <r>   -12.4857     0.0000    32.0000 </r>
       <r>   -12.3859     0.0000    32.0000 </r>
       <r>   -12.2861     0.0000    32.0000 </r>
       <r>   -12.1863     0.0000    32.0000 </r>
       <r>   -12.0865     0.0000    32.0000 </r>
       <r>   -11.9867     0.0000    32.0000 </r>
       <r>   -11.8869     0.0000    32.0000 </r>
       <r>   -11.7871     0.0000    32.0000 </r>
       <r>   -11.6873     0.0000    32.0000 </r>
       <r>   -11.5875     0.0000    32.0000 </r>
       <r>   -11.4877     0.0000    32.0000 </r>
       <r>   -11.3879     0.0000    32.0000 </r>
       <r>   -11.2880     0.0000    32.0000 </r>
       <r>   -11.1882     0.0000    32.0000 </r>
       <r>   -11.0884     0.0000    32.0000 </r>
       <r>   -10.9886     0.0000    32.0000 </r>
       <r>   -10.8888     0.0000    32.0000 </r>
       <r>   -10.7890     0.0000    32.0000 </r>
       <r>   -10.6892     0.0000    32.0000 </r>
       <r>   -10.5894     0.0000    32.0000 </r>
       <r>   -10.4896     0.0000    32.0000 </r>
       <r>   -10.3898     0.0000    32.0000 </r>
       <r>   -10.2900     0.0000    32.0000 </r>
       <r>   -10.1902     0.0000    32.0000 </r>
       <r>   -10.0904     0.0000    32.0000 </r>
       <r>    -9.9906     0.0000    32.0000 </r>
       <r>    -9.8908     0.0000    32.0000 </r>
       <r>    -9.7910     0.0000    32.0000 </r>
       <r>    -9.6912     0.0000    32.0000 </r>
       <r>    -9.5914     0.0000    32.0000 </r>
       <r>    -9.4916     0.0000    32.0000 </r>
       <r>    -9.3918     0.0000    32.0000 </r>
       <r>    -9.2920     0.0000    32.0000 </r>
       <r>    -9.1922     0.0000    32.0000 </r>
       <r>    -9.0924     0.0000    32.0000 </r>
       <r>    -8.9926     0.0000    32.0000 </r>
       <r>    -8.8928     0.0000    32.0000 </r>
       <r>    -8.7930     0.0000    32.0000 </r>
       <r>    -8.6932     0.0000    32.0000 </r>
       <r>    -8.5934     0.0000    32.0000 </r>
       <r>    -8.4936     0.0000    32.0000 </r>
       <r>    -8.3938     0.0000    32.0000 </r>
       <r>    -8.2940     0.0000    32.0000 </r>
       <r>    -8.1942     0.0000    32.0000 </r>
       <r>    -8.0944     0.0000    32.0000 </r>
       <r>    -7.9946     0.0000    32.0000 </r>
       <r>    -7.8948     0.0000    32.0000 </r>
       <r>    -7.7950    -0.0000    32.0000 </r>
       <r>    -7.6952    -0.0000    32.0000 </r>
       <r>    -7.5953    -0.0000    32.0000 </r>
       <r>    -7.4955    -0.0000    32.0000 </r>
       <r>    -7.3957    -0.0000    32.0000 </r>
       <r>    -7.2959    -0.0000    32.0000 </r>
       <r>    -7.1961    -0.0000    32.0000 </r>
       <r>    -7.0963    -0.0000    32.0000 </r>
       <r>    -6.9965    -0.0000    32.0000 </r>
       <r>    -6.8967    -0.0000    32.0000 </r>
       <r>    -6.7969    -0.0001    32.0000 </r>
       <r>    -6.6971    -0.0021    31.9998 </r>
       <r>    -6.5973    -0.0239    31.9974 </r>
       <r>    -6.4975    -0.1475    31.9827 </r>
       <r>    -6.3977    -0.4022    31.9425 </r>
       <r>    -6.2979     0.1154    31.9541 </r>
       <r>    -6.1981     3.2388    32.2773 </r>
       <r>    -6.0983     7.2511    33.0010 </r>
       <r>    -5.9985     6.9124    33.6908 </r>
       <r>    -5.8987     4.2271    34.1127 </r>
       <r>    -5.7989     5.5460    34.6662 </r>
       <r>    -5.6991     7.5183    35.4166 </r>
       <r>    -5.5993     4.5137    35.8671 </r>
       <r>    -5.4995     1.1708    35.9839 </r>
       <r>    -5.3997     4.0462    36.3877 </r>
       <r>    -5.2999    12.0921    37.5945 </r>
       <r>    -5.2001    19.3772    39.5284 </r>
       <r>    -5.1003    22.5859    41.7826 </r>
       <r>    -5.0005    25.4077    44.3183 </r>
       <r>    -4.9007    29.8891    47.3013 </r>
       <r>    -4.8009    30.0651    50.3019 </r>
       <r>    -4.7011    25.0192    52.7989 </r>
       <r>    -4.6013    24.0752    55.2017 </r>
       <r>    -4.5015    29.7066    58.1665 </r>
       <r>    -4.4017    36.6833    61.8276 </r>
       <r>    -4.3019    44.2173    66.2406 </r>
       <r>    -4.2021    47.6070    70.9919 </r>
       <r>    -4.1023    44.6115    75.4442 </r>
       <r>    -4.0025    43.8829    79.8239 </r>
       <r>    -3.9026    42.9995    84.1153 </r>
       <r>    -3.8028    32.0082    87.3098 </r>
       <r>    -3.7030    19.0188    89.2080 </r>
       <r>    -3.6032    14.3084    90.6360 </r>
       <r>    -3.5034    15.8752    92.2204 </r>
       <r>    -3.4036    22.0888    94.4249 </r>
       <r>    -3.3038    26.1321    97.0329 </r>
       <r>    -3.2040    20.9058    99.1194 </r>
       <r>    -3.1042    17.0282   100.8188 </r>
       <r>    -3.0044    23.6196   103.1761 </r>
       <r>    -2.9046    29.7727   106.1475 </r>
       <r>    -2.8048    29.9721   109.1388 </r>
       <r>    -2.7050    30.0646   112.1394 </r>
       <r>    -2.6052    26.5430   114.7884 </r>
       <r>    -2.5054    21.2959   116.9138 </r>
       <r>    -2.4056    23.1547   119.2247 </r>
       <r>    -2.3058    24.9613   121.7159 </r>
       <r>    -2.2060    17.5292   123.4654 </r>
       <r>    -2.1062     6.4507   124.1092 </r>
       <r>    -2.0064     0.1151   124.1207 </r>
       <r>    -1.9066    -1.2911   123.9918 </r>
       <r>    -1.8068    -1.1842   123.8736 </r>
       <r>    -1.7070     1.3242   124.0058 </r>
       <r>    -1.6072     9.1561   124.9196 </r>
       <r>    -1.5074    16.0862   126.5250 </r>
       <r>    -1.4076    12.4877   127.7713 </r>
       <r>    -1.3078     3.6633   128.1369 </r>
       <r>    -1.2080    -0.5471   128.0823 </r>
       <r>    -1.1082    -0.6340   128.0191 </r>
       <r>    -1.0084    -0.1677   128.0023 </r>
       <r>    -0.9086    -0.0217   128.0002 </r>
       <r>    -0.8088    -0.0016   128.0000 </r>
       <r>    -0.7090    -0.0001   128.0000 </r>
       <r>    -0.6092    -0.0000   128.0000 </r>
       <r>    -0.5094    -0.0000   128.0000 </r>
       <r>    -0.4096    -0.0000   128.0000 </r>
       <r>    -0.3097    -0.0000   128.0000 </r>
       <r>    -0.2099    -0.0000   128.0000 </r>
       <r>    -0.1101    -0.0000   128.0000 </r>
       <r>    -0.0103    -0.0000   128.0000 </r>
       <r>     0.0895    -0.0000   128.0000 </r>
       <r>     0.1893    -0.0000   128.0000 </r>
       <r>     0.2891    -0.0005   128.0000 </r>
       <r>     0.3889    -0.0087   127.9991 </r>
       <r>     0.4887    -0.0945   127.9896 </r>
       <r>     0.5885    -0.5801   127.9318 </r>
       <r>     0.6883    -1.8030   127.7518 </r>
       <r>     0.7881    -1.2719   127.6249 </r>
       <r>     0.8879     9.3387   128.5569 </r>
       <r>     0.9877    34.1690   131.9671 </r>
       <r>     1.0875    58.1967   137.7752 </r>
       <r>     1.1873    64.8391   144.2464 </r>
       <r>     1.2871    62.0222   150.4363 </r>
       <r>     1.3869    62.7893   156.7029 </r>
       <r>     1.4867    65.6723   163.2572 </r>
       <r>     1.5865    63.4015   169.5848 </r>
       <r>     1.6863    50.4647   174.6213 </r>
       <r>     1.7861    32.9649   177.9113 </r>
       <r>     1.8859    25.8699   180.4932 </r>
       <r>     1.9857    31.4427   183.6312 </r>
       <r>     2.0855    36.3979   187.2639 </r>
       <r>     2.1853    30.3687   190.2947 </r>
       <r>     2.2851    17.7826   192.0695 </r>
       <r>     2.3849    12.0746   193.2746 </r>
       <r>     2.4847    13.2369   194.5956 </r>
       <r>     2.5845     9.7352   195.5672 </r>
       <r>     2.6843     3.7452   195.9410 </r>
       <r>     2.7841     7.6536   196.7049 </r>
       <r>     2.8839    21.8574   198.8863 </r>
       <r>     2.9837    31.3423   202.0144 </r>
       <r>     3.0835    26.3569   204.6448 </r>
       <r>     3.1833    15.7560   206.2173 </r>
       <r>     3.2831     9.8861   207.2040 </r>
       <r>     3.3830     6.4494   207.8477 </r>
       <r>     3.4828     2.2769   208.0749 </r>
       <r>     3.5826    -0.1826   208.0567 </r>
       <r>     3.6824    -0.4134   208.0154 </r>
       <r>     3.7822    -0.1327   208.0022 </r>
       <r>     3.8820    -0.0201   208.0002 </r>
       <r>     3.9818    -0.0017   208.0000 </r>
       <r>     4.0816    -0.0001   208.0000 </r>
       <r>     4.1814    -0.0000   208.0000 </r>
       <r>     4.2812    -0.0000   208.0000 </r>
       <r>     4.3810    -0.0000   208.0000 </r>
       <r>     4.4808    -0.0000   208.0000 </r>
       <r>     4.5806    -0.0000   208.0000 </r>
       <r>     4.6804     0.0000   208.0000 </r>
       <r>     4.7802     0.0000   208.0000 </r>
       <r>     4.8800     0.0000   208.0000 </r>
       <r>     4.9798     0.0000   208.0000 </r>
       <r>     5.0796     0.0000   208.0000 </r>
       <r>     5.1794     0.0000   208.0000 </r>
       <r>     5.2792     0.0000   208.0000 </r>
      </set>
     </set>
    </array>
   </total>
  </dos>
 </calculation>
 <structure name="finalpos" >
  <crystal>
   <varray name="basis" >
    <v>       5.71126900       0.00000000      -0.79026700 </v>
    <v>       0.00000000       4.78544200       0.00000000 </v>
    <v>       0.00000000       0.02623100      10.88396600 </v>
   </varray>
   <i name="volume">    297.46909295 </i>
   <varray name="rec_basis" >
    <v>       0.17509244       0.00000000       0.00000000 </v>
    <v>      -0.00006969       0.20896711      -0.00050362 </v>
    <v>       0.01271318       0.00000000       0.09187827 </v>
   </varray>
  </crystal>
  <varray name="positions" >
   <v>       0.24699400       0.25831700       0.74623300 </v>
   <v>       0.24699400       0.75149400       0.24623300 </v>
   <v>       0.51485700       0.24497600       0.49774200 </v>
   <v>       0.51485700       0.76149300       0.99879200 </v>
   <v>       0.75373900       0.23127500       0.26486200 </v>
   <v>       0.75373900       0.76872500       0.76486200 </v>
   <v>       0.99045900       0.24137200       0.99652900 </v>
   <v>       0.99045900       0.75862800       0.49652900 </v>
   <v>       0.77857200       0.05847800       0.41725200 </v>
   <v>       0.77857200       0.94152200       0.91725200 </v>
   <v>       0.01959000       0.05755600       0.18278600 </v>
   <v>       0.01370000       0.94244400       0.68278600 </v>
   <v>       0.22224900       0.44944100       0.57080400 </v>
   <v>       0.22224900       0.55055900       0.07080400 </v>
   <v>       0.27923300       0.05174700       0.92203700 </v>
   <v>       0.27923300       0.94825300       0.42203700 </v>
   <v>       0.48187500       0.45353000       0.31584000 </v>
   <v>       0.48187500       0.54647000       0.82055200 </v>
   <v>       0.52253600       0.03560000       0.67416600 </v>
   <v>       0.52253600       0.96440000       0.17416600 </v>
   <v>       0.72723500       0.44302000       0.09109400 </v>
   <v>       0.72235300       0.55698000       0.59109400 </v>
   <v>       0.97343300       0.45650500       0.81960400 </v>
   <v>       0.97343300       0.54349500       0.31960400 </v>
  </varray>
 </structure>
</modeling>
