<?xml version="1.0" encoding="ISO-8859-1"?>
<modeling>
 <generator>
  <i name="program" type="string">vasp </i>
  <i name="version" type="string">5.3.5  </i>
  <i name="subversion" type="string">31Mar14 (build Aug 29 2014 19:41:47) complex                          parallel </i>
  <i name="platform" type="string">LinuxIFC </i>
  <i name="date" type="string">2019 04 11 </i>
  <i name="time" type="string">16:09:53 </i>
 </generator>
 <incar>
  <i type="string" name="SYSTEM"> Fe6OF11_var_22</i>
  <i type="int" name="ISTART">     0</i>
  <i type="string" name="PREC">normal</i>
  <i type="string" name="ALGO"> VeryFast</i>
  <i type="int" name="ISPIN">     1</i>
  <i type="int" name="ICHARG">     2</i>
  <i type="int" name="NELM">   300</i>
  <i type="int" name="ISYM">     0</i>
  <i type="logical" name="LWAVE"> F  </i>
  <i type="int" name="NELM">   300</i>
 </incar>
 <kpoints>
  <generation param="Gamma">
   <v type="int" name="divisions">       1        1        1 </v>
   <v name="usershift">      0.00000000       0.00000000       0.00000000 </v>
   <v name="genvec1">      1.00000000       0.00000000       0.00000000 </v>
   <v name="genvec2">      0.00000000       1.00000000       0.00000000 </v>
   <v name="genvec3">      0.00000000       0.00000000       1.00000000 </v>
   <v name="shift">      0.00000000       0.00000000       0.00000000 </v>
  </generation>
  <varray name="kpointlist" >
   <v>       0.00000000       0.00000000       0.00000000 </v>
  </varray>
  <varray name="weights" >
   <v>       1.00000000 </v>
  </varray>
 </kpoints>
 <parameters>
  <separator name="general" >
   <i type="string" name="SYSTEM">Fe6OF11_var_22</i>
   <i type="logical" name="LCOMPAT"> F  </i>
  </separator>
  <separator name="electronic" >
   <i type="string" name="PREC">normal</i>
   <i name="ENMAX">    400.00000000</i>
   <i name="ENAUG">    613.61400000</i>
   <i name="EDIFF">      0.00010000</i>
   <i type="int" name="IALGO">    48</i>
   <i type="int" name="IWAVPR">    10</i>
   <i type="int" name="NBANDS">   160</i>
   <i name="NELECT">    262.00000000</i>
   <i type="int" name="TURBO">     0</i>
   <i type="int" name="IRESTART">     0</i>
   <i type="int" name="NREBOOT">     0</i>
   <i type="int" name="NMIN">     0</i>
   <i name="EREF">      0.00000000</i>
   <separator name="electronic smearing" >
    <i type="int" name="ISMEAR">     1</i>
    <i name="SIGMA">      0.20000000</i>
    <i name="KSPACING">      0.50000000</i>
    <i type="logical" name="KGAMMA"> T  </i>
   </separator>
   <separator name="electronic projectors" >
    <i type="logical" name="LREAL"> F  </i>
    <v name="ROPT">      0.00000000      0.00000000      0.00000000</v>
    <i type="int" name="LMAXPAW">  -100</i>
    <i type="int" name="LMAXMIX">     2</i>
    <i type="logical" name="NLSPLINE"> F  </i>
   </separator>
   <separator name="electronic startup" >
    <i type="int" name="ISTART">     0</i>
    <i type="int" name="ICHARG">     2</i>
    <i type="int" name="INIWAV">     1</i>
   </separator>
   <separator name="electronic spin" >
    <i type="int" name="ISPIN">     1</i>
    <i type="logical" name="LNONCOLLINEAR"> F  </i>
    <v name="MAGMOM">      1.00000000      1.00000000      1.00000000      1.00000000      1.00000000      1.00000000      1.00000000      1.00000000      1.00000000      1.00000000      1.00000000      1.00000000      1.00000000      1.00000000      1.00000000      1.00000000      1.00000000      1.00000000      1.00000000      1.00000000
      1.00000000      1.00000000      1.00000000      1.00000000      1.00000000      1.00000000      1.00000000      1.00000000      1.00000000      1.00000000      1.00000000      1.00000000      1.00000000      1.00000000      1.00000000      1.00000000</v>
    <i name="NUPDOWN">     -1.00000000</i>
    <i type="logical" name="LSORBIT"> F  </i>
    <v name="SAXIS">      0.00000000      0.00000000      1.00000000</v>
    <i type="logical" name="LSPIRAL"> F  </i>
    <v name="QSPIRAL">      0.00000000      0.00000000      0.00000000</v>
    <i type="logical" name="LZEROZ"> F  </i>
   </separator>
   <separator name="electronic exchange-correlation" >
    <i type="logical" name="LASPH"> F  </i>
    <i type="logical" name="LMETAGGA"> F  </i>
   </separator>
   <separator name="electronic convergence" >
    <i type="int" name="NELM">   300</i>
    <i type="int" name="NELMDL">   -12</i>
    <i type="int" name="NELMIN">     2</i>
    <i name="ENINI">    400.00000000</i>
    <separator name="electronic convergence detail" >
     <i type="logical" name="LDIAG"> T  </i>
     <i type="logical" name="LSUBROT"> F  </i>
     <i name="WEIMIN">      0.00000000</i>
     <i name="EBREAK">      0.00000016</i>
     <i name="DEPER">      0.30000000</i>
     <i type="int" name="NRMM">     4</i>
     <i name="TIME">      0.40000000</i>
    </separator>
   </separator>
   <separator name="electronic mixer" >
    <i name="AMIX">      0.40000000</i>
    <i name="BMIX">      1.00000000</i>
    <i name="AMIN">      0.10000000</i>
    <i name="AMIX_MAG">      1.60000000</i>
    <i name="BMIX_MAG">      1.00000000</i>
    <separator name="electronic mixer details" >
     <i type="int" name="IMIX">     4</i>
     <i type="int" name="MAXMIX">   -45</i>
     <i name="WC">    100.00000000</i>
     <i type="int" name="INIMIX">     1</i>
     <i type="int" name="MIXPRE">     1</i>
     <i type="int" name="MREMOVE">     5</i>
    </separator>
   </separator>
   <separator name="electronic dipolcorrection" >
    <i type="logical" name="LDIPOL"> F  </i>
    <i type="logical" name="LMONO"> F  </i>
    <i type="int" name="IDIPOL">     0</i>
    <i name="EPSILON">      1.00000000</i>
    <v name="DIPOL">   -100.00000000   -100.00000000   -100.00000000</v>
    <i name="EFIELD">      0.00000000</i>
   </separator>
  </separator>
  <separator name="grids" >
   <i type="int" name="NGX">    16</i>
   <i type="int" name="NGY">   108</i>
   <i type="int" name="NGZ">    36</i>
   <i type="int" name="NGXF">    32</i>
   <i type="int" name="NGYF">   216</i>
   <i type="int" name="NGZF">    72</i>
   <i type="logical" name="ADDGRID"> F  </i>
  </separator>
  <separator name="ionic" >
   <i type="int" name="NSW">     0</i>
   <i type="int" name="IBRION">    -1</i>
   <i type="int" name="ISIF">     2</i>
   <i name="PSTRESS">      0.00000000</i>
   <i name="EDIFFG">      0.00100000</i>
   <i type="int" name="NFREE">     0</i>
   <i name="POTIM">      0.50000000</i>
   <i name="SMASS">     -3.00000000</i>
   <i name="SCALEE">      1.00000000</i>
  </separator>
  <separator name="ionic md" >
   <i name="TEBEG">      0.00010000</i>
   <i name="TEEND">      0.00010000</i>
   <i type="int" name="NBLOCK">     1</i>
   <i type="int" name="KBLOCK">     1</i>
   <i type="int" name="NPACO">   256</i>
   <i name="APACO">     16.00000000</i>
  </separator>
  <separator name="symmetry" >
   <i type="int" name="ISYM">     0</i>
   <i name="SYMPREC">      0.00001000</i>
  </separator>
  <separator name="dos" >
   <i type="logical" name="LORBIT"> F  </i>
   <v name="RWIGS">     -1.00000000     -1.00000000     -1.00000000</v>
   <i type="int" name="NEDOS">   301</i>
   <i name="EMIN">     10.00000000</i>
   <i name="EMAX">    -10.00000000</i>
   <i name="EFERMI">      0.00000000</i>
  </separator>
  <separator name="writing" >
   <i type="int" name="NWRITE">     2</i>
   <i type="logical" name="LWAVE"> F  </i>
   <i type="logical" name="LCHARG"> T  </i>
   <i type="logical" name="LPARD"> F  </i>
   <i type="logical" name="LVTOT"> F  </i>
   <i type="logical" name="LVHAR"> F  </i>
   <i type="logical" name="LELF"> F  </i>
   <i type="logical" name="LOPTICS"> F  </i>
   <v name="STM">      0.00000000      0.00000000      0.00000000      0.00000000      0.00000000      0.00000000      0.00000000</v>
  </separator>
  <separator name="performance" >
   <i type="int" name="NPAR">     4</i>
   <i type="int" name="NSIM">     4</i>
   <i type="int" name="NBLK">    -1</i>
   <i type="logical" name="LPLANE"> T  </i>
   <i type="logical" name="LSCALAPACK"> T  </i>
   <i type="logical" name="LSCAAWARE"> F  </i>
   <i type="logical" name="LSCALU"> F  </i>
   <i type="logical" name="LASYNC"> F  </i>
   <i type="logical" name="LORBITALREAL"> F  </i>
  </separator>
  <separator name="miscellaneous" >
   <i type="int" name="IDIOT">     3</i>
   <i type="logical" name="LMUSIC"> F  </i>
   <v name="POMASS">     55.84700000     16.00000000     18.99800000</v>
   <v name="DARWINR">      0.00000000      0.00000000      0.00000000</v>
   <v name="DARWINV">      1.00000000      1.00000000      1.00000000</v>
   <i type="logical" name="LCORR"> T  </i>
  </separator>
  <i type="logical" name="GGA_COMPAT"> T  </i>
  <i type="logical" name="LBERRY"> F  </i>
  <i type="int" name="ICORELEVEL">     0</i>
  <i type="logical" name="LDAU"> F  </i>
  <i type="int" name="I_CONSTRAINED_M">     0</i>
  <separator name="electronic exchange-correlation" >
   <i type="string" name="GGA">--</i>
   <i type="int" name="VOSKOWN">     0</i>
   <i type="logical" name="LHFCALC"> F  </i>
   <i type="string" name="PRECFOCK"></i>
   <i type="logical" name="LSYMGRAD"> F  </i>
   <i type="logical" name="LHFONE"> F  </i>
   <i type="logical" name="LRHFCALC"> F  </i>
   <i type="logical" name="LTHOMAS"> F  </i>
   <i type="logical" name="LMODELHF"> F  </i>
   <i name="ENCUT4O">     -1.00000000</i>
   <i type="int" name="EXXOEP">     0</i>
   <i type="int" name="FOURORBIT">     0</i>
   <i name="AEXX">      0.00000000</i>
   <i name="HFALPHA">      0.00000000</i>
   <i name="MCALPHA">      0.00000000</i>
   <i name="ALDAX">      1.00000000</i>
   <i name="AGGAX">      1.00000000</i>
   <i name="ALDAC">      1.00000000</i>
   <i name="AGGAC">      1.00000000</i>
   <i type="int" name="NKREDX">     1</i>
   <i type="int" name="NKREDY">     1</i>
   <i type="int" name="NKREDZ">     1</i>
   <i type="logical" name="SHIFTRED"> F  </i>
   <i type="logical" name="ODDONLY"> F  </i>
   <i type="logical" name="EVENONLY"> F  </i>
   <i type="int" name="LMAXFOCK">     0</i>
   <i type="int" name="NMAXFOCKAE">     0</i>
   <i type="logical" name="LFOCKAEDFT"> F  </i>
   <i name="HFSCREEN">      0.00000000</i>
   <i name="HFSCREENC">      0.00000000</i>
   <i type="int" name="NBANDSGWLOW">     0</i>
  </separator>
  <separator name="vdW DFT" >
   <i type="logical" name="LUSE_VDW"> F  </i>
   <i name="Zab_VDW">     -0.84910000</i>
   <i name="PARAM1">      0.12340000</i>
   <i name="PARAM2">      1.00000000</i>
   <i name="PARAM3">      0.00000000</i>
  </separator>
  <separator name="model GW" >
   <i type="int" name="MODEL_GW">     0</i>
   <i name="MODEL_EPS0">      7.61529848</i>
   <i name="MODEL_ALPHA">      1.00000000</i>
  </separator>
  <separator name="linear response parameters" >
   <i type="logical" name="LEPSILON"> F  </i>
   <i type="logical" name="LRPA"> F  </i>
   <i type="logical" name="LNABLA"> F  </i>
   <i type="logical" name="LVEL"> F  </i>
   <i type="int" name="KINTER">     0</i>
   <i name="CSHIFT">      0.10000000</i>
   <i name="OMEGAMAX">     -1.00000000</i>
   <i name="DEG_THRESHOLD">      0.00200000</i>
  </separator>
  <separator name="orbital magnetization" >
   <i type="logical" name="NUCIND"> F  </i>
   <v name="MAGPOS">      0.00000000      0.00000000      0.00000000</v>
   <i type="logical" name="LNICSALL"> T  </i>
   <i type="logical" name="ORBITALMAG"> F  </i>
   <i type="logical" name="LMAGBLOCH"> F  </i>
   <i type="logical" name="LCHIMAG"> F  </i>
   <i type="logical" name="LGAUGE"> T  </i>
   <i type="int" name="MAGATOM">     0</i>
   <v name="MAGDIPOL">      0.00000000      0.00000000      0.00000000</v>
   <v name="AVECCONST">      0.00000000      0.00000000      0.00000000</v>
  </separator>
  <separator name="response functions" >
   <i type="logical" name="LADDER"> F  </i>
   <i type="logical" name="LFXC"> F  </i>
   <i type="logical" name="LHARTREE"> T  </i>
   <i type="int" name="IBSE">     0</i>
   <i type="logical" name="LTCTE"> F  </i>
   <i type="logical" name="LTETE"> F  </i>
   <i type="logical" name="LTRIPLET"> F  </i>
   <i type="logical" name="LFXCEPS"> F  </i>
   <i type="logical" name="LFXHEG"> F  </i>
   <i type="logical" name="L2ORDER"> F  </i>
   <i type="logical" name="LUSEW"> F  </i>
   <i name="ENCUTGW">     -2.00000000</i>
   <i name="ENCUTGWSOFT">     -2.00000000</i>
   <i name="ENCUTLF">     -1.00000000</i>
   <i type="int" name="LMAXMP2">    -1</i>
   <i name="SCISSOR">      0.00000000</i>
   <i type="int" name="NOMEGA">     0</i>
   <i type="int" name="NOMEGAR">     0</i>
   <i type="int" name="NBANDSGW">    -1</i>
   <i type="int" name="NBANDSO">    -1</i>
   <i type="int" name="NBANDSV">    -1</i>
   <i type="int" name="NELM">   300</i>
   <i type="int" name="DIM">     3</i>
   <i type="int" name="ANTIRES">     0</i>
   <i name="OMEGAMAX">    -30.00000000</i>
   <i name="OMEGAMIN">    -30.00000000</i>
   <i name="OMEGATL">   -200.00000000</i>
   <i type="int" name="OMEGAGRID">     0</i>
   <i name="CSHIFT">     -0.10000000</i>
   <i type="logical" name="SELFENERGY"> F  </i>
   <i type="logical" name="LSPECTRAL"> F  </i>
   <i type="logical" name="ODDONLYGW"> F  </i>
   <i type="logical" name="EVENONLYGW"> F  </i>
   <i type="int" name="NKREDLFX">     1</i>
   <i type="int" name="NKREDLFY">     1</i>
   <i type="int" name="NKREDLFZ">     1</i>
   <i type="int" name="MAXMEM">  1800</i>
   <i type="int" name="TELESCOPE">     0</i>
   <i type="int" name="TAUPAR">     1</i>
  </separator>
  <separator name="External order field" >
   <i name="OFIELD_KAPPA">      0.00000000</i>
   <v name="OFIELD_K">      0.00000000      0.00000000      0.00000000</v>
   <i name="OFIELD_Q6_NEAR">      0.00000000</i>
   <i name="OFIELD_Q6_FAR">      0.00000000</i>
   <i name="OFIELD_A">      0.00000000</i>
  </separator>
 </parameters>
 <atominfo>
  <atoms>      36 </atoms>
  <types>       3 </types>
  <array name="atoms" >
   <dimension dim="1">ion</dimension>
   <field type="string">element</field>
   <field type="int">atomtype</field>
   <set>
    <rc><c>Fe</c><c>   1</c></rc>
    <rc><c>Fe</c><c>   1</c></rc>
    <rc><c>Fe</c><c>   1</c></rc>
    <rc><c>Fe</c><c>   1</c></rc>
    <rc><c>Fe</c><c>   1</c></rc>
    <rc><c>Fe</c><c>   1</c></rc>
    <rc><c>Fe</c><c>   1</c></rc>
    <rc><c>Fe</c><c>   1</c></rc>
    <rc><c>Fe</c><c>   1</c></rc>
    <rc><c>Fe</c><c>   1</c></rc>
    <rc><c>Fe</c><c>   1</c></rc>
    <rc><c>Fe</c><c>   1</c></rc>
    <rc><c>O </c><c>   2</c></rc>
    <rc><c>O </c><c>   2</c></rc>
    <rc><c>F </c><c>   3</c></rc>
    <rc><c>F </c><c>   3</c></rc>
    <rc><c>F </c><c>   3</c></rc>
    <rc><c>F </c><c>   3</c></rc>
    <rc><c>F </c><c>   3</c></rc>
    <rc><c>F </c><c>   3</c></rc>
    <rc><c>F </c><c>   3</c></rc>
    <rc><c>F </c><c>   3</c></rc>
    <rc><c>F </c><c>   3</c></rc>
    <rc><c>F </c><c>   3</c></rc>
    <rc><c>F </c><c>   3</c></rc>
    <rc><c>F </c><c>   3</c></rc>
    <rc><c>F </c><c>   3</c></rc>
    <rc><c>F </c><c>   3</c></rc>
    <rc><c>F </c><c>   3</c></rc>
    <rc><c>F </c><c>   3</c></rc>
    <rc><c>F </c><c>   3</c></rc>
    <rc><c>F </c><c>   3</c></rc>
    <rc><c>F </c><c>   3</c></rc>
    <rc><c>F </c><c>   3</c></rc>
    <rc><c>F </c><c>   3</c></rc>
    <rc><c>F </c><c>   3</c></rc>
   </set>
  </array>
  <array name="atomtypes" >
   <dimension dim="1">type</dimension>
   <field type="int">atomspertype</field>
   <field type="string">element</field>
   <field>mass</field>
   <field>valence</field>
   <field type="string">pseudopotential</field>
   <set>
    <rc><c>  12</c><c>Fe</c><c>     55.84700000</c><c>      8.00000000</c><c>  PAW_PBE Fe 06Sep2000                  </c></rc>
    <rc><c>   2</c><c>O </c><c>     16.00000000</c><c>      6.00000000</c><c>  PAW_PBE O 08Apr2002                   </c></rc>
    <rc><c>  22</c><c>F </c><c>     18.99800000</c><c>      7.00000000</c><c>  PAW_PBE F 08Apr2002                   </c></rc>
   </set>
  </array>
 </atominfo>
 <structure name="initialpos" >
  <crystal>
   <varray name="basis" >
    <v>       3.25262800      -0.02730300       0.00000000 </v>
    <v>       0.00000000      20.54938400       0.00000000 </v>
    <v>       0.00000000       0.00000000       6.83604600 </v>
   </varray>
   <i name="volume">    456.91790879 </i>
   <varray name="rec_basis" >
    <v>       0.30744370       0.00000000       0.00000000 </v>
    <v>       0.00040849       0.04866326       0.00000000 </v>
    <v>       0.00000000       0.00000000       0.14628339 </v>
   </varray>
  </crystal>
  <varray name="positions" >
   <v>       0.00000000       0.16671900       0.50094400 </v>
   <v>       0.00000000       0.83328100       0.50139100 </v>
   <v>       0.00000000       0.66072200       0.01009100 </v>
   <v>       0.00000000       0.34061600       0.00139100 </v>
   <v>       0.50000000       0.16602100       0.00000400 </v>
   <v>       0.50000000       0.83397900       0.00000400 </v>
   <v>       0.50000000       0.66602100       0.50000400 </v>
   <v>       0.50000000       0.33397900       0.50000400 </v>
   <v>       0.00000000       0.00000000       0.01216200 </v>
   <v>       0.00600400       0.50000000       0.50277200 </v>
   <v>       0.50000000       0.00000000       0.47240000 </v>
   <v>       0.50000000       0.49874000       0.97240000 </v>
   <v>       0.00000000       0.00071800       0.31436200 </v>
   <v>       0.00599000       0.49668800       0.81436200 </v>
   <v>       0.00000000       0.16816900       0.20329900 </v>
   <v>       0.00000000       0.83183100       0.19452700 </v>
   <v>       0.00000000       0.67207000       0.70329900 </v>
   <v>       0.00000000       0.33183100       0.70329900 </v>
   <v>       0.00000000       0.16838200       0.79934600 </v>
   <v>       0.00000000       0.83161800       0.79934600 </v>
   <v>       0.00000000       0.66838200       0.29618600 </v>
   <v>       0.00000000       0.33161800       0.29934600 </v>
   <v>       0.50000000       0.06837200       0.99633700 </v>
   <v>       0.50000000       0.93162800       0.99633700 </v>
   <v>       0.50000000       0.56837200       0.49633700 </v>
   <v>       0.50000000       0.43162800       0.49633700 </v>
   <v>       0.50000000       0.09818400       0.50567900 </v>
   <v>       0.50000000       0.90181600       0.50567900 </v>
   <v>       0.50000000       0.59818400       0.00567900 </v>
   <v>       0.50000000       0.40181600       0.99576600 </v>
   <v>       0.50000000       0.23406000       0.50152500 </v>
   <v>       0.50000000       0.76594000       0.50152500 </v>
   <v>       0.50000000       0.73406000       0.00152500 </v>
   <v>       0.50000000       0.26594000       0.00446500 </v>
   <v>       0.00000000       0.00000000       0.69474100 </v>
   <v>       0.00000000       0.50000000       0.19474100 </v>
  </varray>
 </structure>
 <calculation>
  <scstep>
   <time name="diag">    0.50    0.64</time>
   <time name="diis">    0.35    0.60</time>
   <time name="orth">    0.17    0.18</time>
   <time name="total">    1.19    1.58</time>
   <energy>
    <i name="alphaZ">    937.52600103 </i>
    <i name="ewald"> -15948.47988942 </i>
    <i name="hartreedc">  -6720.89900239 </i>
    <i name="XCdc">    901.90190165 </i>
    <i name="pawpsdc">  19213.82102697 </i>
    <i name="pawaedc"> -19422.08171028 </i>
    <i name="eentropy">      0.10032190 </i>
    <i name="bandstr">   1793.39439300 </i>
    <i name="atom">  22504.09828397 </i>
    <i name="e_fr_energy">   3259.38132643 </i>
    <i name="e_wo_entrp">   3259.28100452 </i>
    <i name="e_0_energy">   3259.34788579 </i>
   </energy>
  </scstep>
  <scstep>
   <time name="diag">    0.58    0.99</time>
   <time name="diis">    0.40    0.55</time>
   <time name="orth">    0.04    0.04</time>
   <time name="total">    1.03    1.60</time>
   <energy>
    <i name="e_fr_energy">   1035.22873364 </i>
    <i name="e_wo_entrp">   1035.29591915 </i>
    <i name="e_0_energy">   1035.25112881 </i>
   </energy>
  </scstep>
  <scstep>
   <time name="diag">    0.16    0.23</time>
   <time name="diis">    0.37    0.62</time>
   <time name="orth">    0.05    0.10</time>
   <time name="total">    0.58    0.95</time>
   <energy>
    <i name="e_fr_energy">    348.93800256 </i>
    <i name="e_wo_entrp">    349.03339063 </i>
    <i name="e_0_energy">    348.96979859 </i>
   </energy>
  </scstep>
  <scstep>
   <time name="diag">    0.32    0.50</time>
   <time name="diis">    0.37    0.52</time>
   <time name="orth">    0.10    0.12</time>
   <time name="total">    0.80    1.15</time>
   <energy>
    <i name="e_fr_energy">     67.02595384 </i>
    <i name="e_wo_entrp">     67.05078727 </i>
    <i name="e_0_energy">     67.03423165 </i>
   </energy>
  </scstep>
  <scstep>
   <time name="diag">    0.37    0.55</time>
   <time name="diis">    0.36    0.58</time>
   <time name="orth">    0.08    0.10</time>
   <time name="total">    0.81    1.23</time>
   <energy>
    <i name="e_fr_energy">    -88.68112780 </i>
    <i name="e_wo_entrp">    -88.67506871 </i>
    <i name="e_0_energy">    -88.67910811 </i>
   </energy>
  </scstep>
  <scstep>
   <time name="diag">    0.29    0.43</time>
   <time name="diis">    0.42    0.64</time>
   <time name="orth">    0.12    0.22</time>
   <time name="total">    0.82    1.28</time>
   <energy>
    <i name="e_fr_energy">   -159.83664643 </i>
    <i name="e_wo_entrp">   -159.91819201 </i>
    <i name="e_0_energy">   -159.86382829 </i>
   </energy>
  </scstep>
  <scstep>
   <time name="diag">    0.37    0.44</time>
   <time name="diis">    0.39    0.66</time>
   <time name="orth">    0.09    0.11</time>
   <time name="total">    0.85    1.21</time>
   <energy>
    <i name="e_fr_energy">   -194.06056161 </i>
    <i name="e_wo_entrp">   -194.26087275 </i>
    <i name="e_0_energy">   -194.12733199 </i>
   </energy>
  </scstep>
  <scstep>
   <time name="diag">    0.19    0.31</time>
   <time name="diis">    0.44    0.64</time>
   <time name="orth">    0.29    0.44</time>
   <time name="total">    0.92    1.40</time>
   <energy>
    <i name="e_fr_energy">   -207.73443475 </i>
    <i name="e_wo_entrp">   -207.98070167 </i>
    <i name="e_0_energy">   -207.81652372 </i>
   </energy>
  </scstep>
  <scstep>
   <time name="diag">    0.64    0.95</time>
   <time name="diis">    1.41    1.67</time>
   <time name="orth">    0.09    0.12</time>
   <time name="total">    2.14    2.75</time>
   <energy>
    <i name="e_fr_energy">   -221.52464268 </i>
    <i name="e_wo_entrp">   -221.74723913 </i>
    <i name="e_0_energy">   -221.59884150 </i>
   </energy>
  </scstep>
  <scstep>
   <time name="diag">    0.31    0.35</time>
   <time name="diis">    1.16    1.67</time>
   <time name="orth">    0.12    0.21</time>
   <time name="total">    1.59    2.23</time>
   <energy>
    <i name="e_fr_energy">   -221.86779721 </i>
    <i name="e_wo_entrp">   -222.01677307 </i>
    <i name="e_0_energy">   -221.91745583 </i>
   </energy>
  </scstep>
  <scstep>
   <time name="diag">    0.51    0.59</time>
   <time name="diis">    1.32    1.68</time>
   <time name="orth">    0.09    0.15</time>
   <time name="total">    1.92    2.42</time>
   <energy>
    <i name="e_fr_energy">   -222.12168779 </i>
    <i name="e_wo_entrp">   -222.23687494 </i>
    <i name="e_0_energy">   -222.16008351 </i>
   </energy>
  </scstep>
  <scstep>
   <time name="diag">    0.24    0.43</time>
   <time name="diis">    0.97    1.31</time>
   <time name="orth">    0.04    0.04</time>
   <time name="total">    1.34    1.90</time>
   <energy>
    <i name="e_fr_energy">   -222.21918673 </i>
    <i name="e_wo_entrp">   -222.32533633 </i>
    <i name="e_0_energy">   -222.25456993 </i>
   </energy>
  </scstep>
  <scstep>
   <time name="diag">    0.16    0.20</time>
   <time name="diis">    0.75    1.36</time>
   <time name="orth">    0.09    0.18</time>
   <time name="total">    1.31    2.21</time>
   <energy>
    <i name="e_fr_energy">   -208.72442354 </i>
    <i name="e_wo_entrp">   -208.64601295 </i>
    <i name="e_0_energy">   -208.69828667 </i>
   </energy>
  </scstep>
  <scstep>
   <time name="diag">    0.27    0.37</time>
   <time name="diis">    0.86    1.13</time>
   <time name="orth">    0.04    0.07</time>
   <time name="total">    1.46    2.00</time>
   <energy>
    <i name="e_fr_energy">   -255.21249144 </i>
    <i name="e_wo_entrp">   -255.32001593 </i>
    <i name="e_0_energy">   -255.24833294 </i>
   </energy>
  </scstep>
  <scstep>
   <time name="diag">    0.13    0.18</time>
   <time name="diis">    0.84    1.18</time>
   <time name="orth">    0.06    0.07</time>
   <time name="total">    1.26    1.75</time>
   <energy>
    <i name="e_fr_energy">   -239.81738251 </i>
    <i name="e_wo_entrp">   -239.82896501 </i>
    <i name="e_0_energy">   -239.82124334 </i>
   </energy>
  </scstep>
  <scstep>
   <time name="diag">    0.27    0.39</time>
   <time name="diis">    0.88    1.18</time>
   <time name="orth">    0.08    0.11</time>
   <time name="total">    1.46    2.07</time>
   <energy>
    <i name="e_fr_energy">   -206.94886082 </i>
    <i name="e_wo_entrp">   -207.05261384 </i>
    <i name="e_0_energy">   -206.98344516 </i>
   </energy>
  </scstep>
  <scstep>
   <time name="diag">    0.24    0.30</time>
   <time name="diis">    0.85    1.13</time>
   <time name="orth">    0.06    0.08</time>
   <time name="total">    1.35    1.79</time>
   <energy>
    <i name="e_fr_energy">   -220.72848437 </i>
    <i name="e_wo_entrp">   -220.68964830 </i>
    <i name="e_0_energy">   -220.71553902 </i>
   </energy>
  </scstep>
  <scstep>
   <time name="diag">    0.29    0.48</time>
   <time name="diis">    0.79    1.16</time>
   <time name="orth">    0.23    0.24</time>
   <time name="total">    1.48    2.11</time>
   <energy>
    <i name="e_fr_energy">   -239.10555233 </i>
    <i name="e_wo_entrp">   -239.06838819 </i>
    <i name="e_0_energy">   -239.09316428 </i>
   </energy>
  </scstep>
  <scstep>
   <time name="diag">    0.21    0.25</time>
   <time name="diis">    0.96    1.24</time>
   <time name="orth">    0.17    0.22</time>
   <time name="total">    1.57    2.14</time>
   <energy>
    <i name="e_fr_energy">   -219.52501258 </i>
    <i name="e_wo_entrp">   -219.55650665 </i>
    <i name="e_0_energy">   -219.53551061 </i>
   </energy>
  </scstep>
  <scstep>
   <time name="diag">    0.21    0.41</time>
   <time name="diis">    0.74    1.21</time>
   <time name="orth">    0.06    0.08</time>
   <time name="total">    1.26    2.15</time>
   <energy>
    <i name="e_fr_energy">   -211.61450398 </i>
    <i name="e_wo_entrp">   -211.56487833 </i>
    <i name="e_0_energy">   -211.59796210 </i>
   </energy>
  </scstep>
  <scstep>
   <time name="diag">    0.24    0.28</time>
   <time name="diis">    0.80    1.10</time>
   <time name="orth">    0.13    0.22</time>
   <time name="total">    1.61    2.21</time>
   <energy>
    <i name="e_fr_energy">   -223.88503459 </i>
    <i name="e_wo_entrp">   -223.91764775 </i>
    <i name="e_0_energy">   -223.89590564 </i>
   </energy>
  </scstep>
  <scstep>
   <time name="diag">    0.13    0.16</time>
   <time name="diis">    0.84    1.20</time>
   <time name="orth">    0.21    0.27</time>
   <time name="total">    1.41    1.99</time>
   <energy>
    <i name="e_fr_energy">   -213.05622403 </i>
    <i name="e_wo_entrp">   -213.09031902 </i>
    <i name="e_0_energy">   -213.06758903 </i>
   </energy>
  </scstep>
  <scstep>
   <time name="diag">    0.28    0.38</time>
   <time name="diis">    0.74    1.03</time>
   <time name="orth">    0.05    0.11</time>
   <time name="total">    1.26    1.77</time>
   <energy>
    <i name="e_fr_energy">   -205.08965903 </i>
    <i name="e_wo_entrp">   -205.02671965 </i>
    <i name="e_0_energy">   -205.06867923 </i>
   </energy>
  </scstep>
  <scstep>
   <time name="diag">    0.14    0.24</time>
   <time name="diis">    0.87    1.22</time>
   <time name="orth">    0.15    0.16</time>
   <time name="total">    1.39    1.92</time>
   <energy>
    <i name="e_fr_energy">   -214.28856981 </i>
    <i name="e_wo_entrp">   -214.20304856 </i>
    <i name="e_0_energy">   -214.26006273 </i>
   </energy>
  </scstep>
  <scstep>
   <time name="diag">    1.02    1.27</time>
   <time name="diis">    0.81    1.17</time>
   <time name="orth">    0.18    0.33</time>
   <time name="total">    2.31    3.27</time>
   <energy>
    <i name="e_fr_energy">   -206.28309546 </i>
    <i name="e_wo_entrp">   -206.31904897 </i>
    <i name="e_0_energy">   -206.29507996 </i>
   </energy>
  </scstep>
  <scstep>
   <time name="diag">    0.24    0.36</time>
   <time name="diis">    0.73    1.07</time>
   <time name="orth">    0.02    0.02</time>
   <time name="total">    1.28    1.86</time>
   <energy>
    <i name="e_fr_energy">   -196.98931512 </i>
    <i name="e_wo_entrp">   -196.98753799 </i>
    <i name="e_0_energy">   -196.98872274 </i>
   </energy>
  </scstep>
  <scstep>
   <time name="diag">    0.18    0.31</time>
   <time name="diis">    0.73    1.03</time>
   <time name="orth">    0.34    0.52</time>
   <time name="total">    1.63    2.45</time>
   <energy>
    <i name="e_fr_energy">   -196.04669722 </i>
    <i name="e_wo_entrp">   -195.97255677 </i>
    <i name="e_0_energy">   -196.02198373 </i>
   </energy>
  </scstep>
  <scstep>
   <time name="diag">    0.31    0.55</time>
   <time name="diis">    0.72    1.08</time>
   <time name="orth">    0.19    0.25</time>
   <time name="total">    1.35    2.08</time>
   <energy>
    <i name="e_fr_energy">   -191.34350879 </i>
    <i name="e_wo_entrp">   -191.49168416 </i>
    <i name="e_0_energy">   -191.39290058 </i>
   </energy>
  </scstep>
  <scstep>
   <time name="diag">    0.21    0.33</time>
   <time name="diis">    0.79    1.08</time>
   <time name="orth">    0.07    0.08</time>
   <time name="total">    1.35    1.82</time>
   <energy>
    <i name="e_fr_energy">   -190.70880139 </i>
    <i name="e_wo_entrp">   -190.70965238 </i>
    <i name="e_0_energy">   -190.70908506 </i>
   </energy>
  </scstep>
  <scstep>
   <time name="diag">    0.25    0.37</time>
   <time name="diis">    0.68    1.13</time>
   <time name="orth">    0.09    0.17</time>
   <time name="total">    1.22    1.98</time>
   <energy>
    <i name="e_fr_energy">   -189.56423922 </i>
    <i name="e_wo_entrp">   -189.62060653 </i>
    <i name="e_0_energy">   -189.58302832 </i>
   </energy>
  </scstep>
  <scstep>
   <time name="diag">    0.17    0.26</time>
   <time name="diis">    0.84    1.11</time>
   <time name="orth">    0.07    0.07</time>
   <time name="total">    1.43    1.97</time>
   <energy>
    <i name="e_fr_energy">   -189.18525458 </i>
    <i name="e_wo_entrp">   -189.18516067 </i>
    <i name="e_0_energy">   -189.18522328 </i>
   </energy>
  </scstep>
  <scstep>
   <time name="diag">    0.22    0.22</time>
   <time name="diis">    0.81    0.99</time>
   <time name="orth">    0.06    0.08</time>
   <time name="total">    1.36    1.69</time>
   <energy>
    <i name="e_fr_energy">   -189.13335284 </i>
    <i name="e_wo_entrp">   -189.19689743 </i>
    <i name="e_0_energy">   -189.15453437 </i>
   </energy>
  </scstep>
  <scstep>
   <time name="diag">    0.28    0.47</time>
   <time name="diis">    0.80    1.21</time>
   <time name="orth">    0.43    0.71</time>
   <time name="total">    1.99    3.09</time>
   <energy>
    <i name="e_fr_energy">   -188.92236865 </i>
    <i name="e_wo_entrp">   -188.94785169 </i>
    <i name="e_0_energy">   -188.93086300 </i>
   </energy>
  </scstep>
  <scstep>
   <time name="diag">    0.44    0.67</time>
   <time name="diis">    0.87    1.23</time>
   <time name="orth">    0.10    0.19</time>
   <time name="total">    1.84    2.70</time>
   <energy>
    <i name="e_fr_energy">   -188.82675595 </i>
    <i name="e_wo_entrp">   -188.90172317 </i>
    <i name="e_0_energy">   -188.85174502 </i>
   </energy>
  </scstep>
  <scstep>
   <time name="diag">    0.36    0.55</time>
   <time name="diis">    0.76    1.15</time>
   <time name="orth">    0.05    0.10</time>
   <time name="total">    1.42    2.14</time>
   <energy>
    <i name="e_fr_energy">   -188.68088664 </i>
    <i name="e_wo_entrp">   -188.74095733 </i>
    <i name="e_0_energy">   -188.70091021 </i>
   </energy>
  </scstep>
  <scstep>
   <time name="diag">    0.22    0.23</time>
   <time name="diis">    0.99    1.21</time>
   <time name="orth">    0.05    0.05</time>
   <time name="total">    1.56    1.86</time>
   <energy>
    <i name="e_fr_energy">   -188.64079336 </i>
    <i name="e_wo_entrp">   -188.69645660 </i>
    <i name="e_0_energy">   -188.65934777 </i>
   </energy>
  </scstep>
  <scstep>
   <time name="diag">    0.22    0.39</time>
   <time name="diis">    0.76    1.15</time>
   <time name="orth">    0.09    0.12</time>
   <time name="total">    1.27    1.86</time>
   <energy>
    <i name="e_fr_energy">   -188.61053512 </i>
    <i name="e_wo_entrp">   -188.66318287 </i>
    <i name="e_0_energy">   -188.62808437 </i>
   </energy>
  </scstep>
  <scstep>
   <time name="diag">    0.30    0.46</time>
   <time name="diis">    0.74    1.13</time>
   <time name="orth">    0.54    0.64</time>
   <time name="total">    1.84    2.65</time>
   <energy>
    <i name="e_fr_energy">   -188.63506855 </i>
    <i name="e_wo_entrp">   -188.65501946 </i>
    <i name="e_0_energy">   -188.64171885 </i>
   </energy>
  </scstep>
  <scstep>
   <time name="diag">    0.22    0.36</time>
   <time name="diis">    0.76    1.10</time>
   <time name="orth">    0.04    0.06</time>
   <time name="total">    1.40    2.08</time>
   <energy>
    <i name="e_fr_energy">   -188.62954119 </i>
    <i name="e_wo_entrp">   -188.64235057 </i>
    <i name="e_0_energy">   -188.63381098 </i>
   </energy>
  </scstep>
  <scstep>
   <time name="diag">    0.20    0.24</time>
   <time name="diis">    0.87    1.12</time>
   <time name="orth">    0.16    0.27</time>
   <time name="total">    1.43    1.95</time>
   <energy>
    <i name="e_fr_energy">   -188.64163712 </i>
    <i name="e_wo_entrp">   -188.64912191 </i>
    <i name="e_0_energy">   -188.64413205 </i>
   </energy>
  </scstep>
  <scstep>
   <time name="diag">    0.25    0.30</time>
   <time name="diis">    0.79    0.97</time>
   <time name="orth">    0.03    0.06</time>
   <time name="total">    1.27    1.61</time>
   <energy>
    <i name="e_fr_energy">   -188.63794120 </i>
    <i name="e_wo_entrp">   -188.65283212 </i>
    <i name="e_0_energy">   -188.64290484 </i>
   </energy>
  </scstep>
  <scstep>
   <time name="diag">    0.12    0.24</time>
   <time name="diis">    0.69    0.96</time>
   <time name="orth">    0.03    0.06</time>
   <time name="total">    1.07    1.56</time>
   <energy>
    <i name="e_fr_energy">   -188.63757583 </i>
    <i name="e_wo_entrp">   -188.64393888 </i>
    <i name="e_0_energy">   -188.63969685 </i>
   </energy>
  </scstep>
  <scstep>
   <time name="diag">    0.28    0.42</time>
   <time name="diis">    0.63    0.84</time>
   <time name="orth">    0.03    0.04</time>
   <time name="total">    1.32    1.85</time>
   <energy>
    <i name="e_fr_energy">   -188.63777525 </i>
    <i name="e_wo_entrp">   -188.64813491 </i>
    <i name="e_0_energy">   -188.64122847 </i>
   </energy>
  </scstep>
  <scstep>
   <time name="diag">    0.21    0.39</time>
   <time name="diis">    0.76    1.04</time>
   <time name="orth">    0.08    0.08</time>
   <time name="total">    1.28    1.80</time>
   <energy>
    <i name="e_fr_energy">   -188.63339652 </i>
    <i name="e_wo_entrp">   -188.64122733 </i>
    <i name="e_0_energy">   -188.63600679 </i>
   </energy>
  </scstep>
  <scstep>
   <time name="diag">    0.50    0.66</time>
   <time name="diis">    0.54    0.80</time>
   <time name="orth">    0.07    0.08</time>
   <time name="total">    1.60    2.20</time>
   <energy>
    <i name="e_fr_energy">   -188.63189084 </i>
    <i name="e_wo_entrp">   -188.63955008 </i>
    <i name="e_0_energy">   -188.63444392 </i>
   </energy>
  </scstep>
  <scstep>
   <time name="diag">    0.24    0.28</time>
   <time name="diis">    0.39    0.65</time>
   <time name="orth">    0.14    0.19</time>
   <time name="total">    1.04    1.65</time>
   <energy>
    <i name="e_fr_energy">   -188.63169769 </i>
    <i name="e_wo_entrp">   -188.63847494 </i>
    <i name="e_0_energy">   -188.63395677 </i>
   </energy>
  </scstep>
  <scstep>
   <time name="diag">    0.26    0.44</time>
   <time name="diis">    0.53    0.67</time>
   <time name="orth">    0.14    0.19</time>
   <time name="total">    1.34    1.85</time>
   <energy>
    <i name="e_fr_energy">   -188.63048410 </i>
    <i name="e_wo_entrp">   -188.63623321 </i>
    <i name="e_0_energy">   -188.63240047 </i>
   </energy>
  </scstep>
  <scstep>
   <time name="diag">    0.21    0.32</time>
   <time name="diis">    0.45    0.61</time>
   <time name="orth">    0.03    0.06</time>
   <time name="total">    0.82    1.17</time>
   <energy>
    <i name="alphaZ">    937.52600103 </i>
    <i name="ewald"> -15948.47988942 </i>
    <i name="hartreedc">  -6879.47672724 </i>
    <i name="XCdc">    918.20884260 </i>
    <i name="pawpsdc">  22394.53933663 </i>
    <i name="pawaedc"> -22604.88003520 </i>
    <i name="eentropy">      0.00554582 </i>
    <i name="bandstr">  -1510.17188678 </i>
    <i name="atom">  22504.09828397 </i>
    <i name="e_fr_energy">   -188.63052859 </i>
    <i name="e_wo_entrp">   -188.63607441 </i>
    <i name="e_0_energy">   -188.63237720 </i>
   </energy>
  </scstep>
  <structure>
   <crystal>
    <varray name="basis" >
     <v>       3.25262800      -0.02730300       0.00000000 </v>
     <v>       0.00000000      20.54938400       0.00000000 </v>
     <v>       0.00000000       0.00000000       6.83604600 </v>
    </varray>
    <i name="volume">    456.91790879 </i>
    <varray name="rec_basis" >
     <v>       0.30744370       0.00000000       0.00000000 </v>
     <v>       0.00040849       0.04866326       0.00000000 </v>
     <v>       0.00000000       0.00000000       0.14628339 </v>
    </varray>
   </crystal>
   <varray name="positions" >
    <v>       0.00000000       0.16671900       0.50094400 </v>
    <v>       0.00000000       0.83328100       0.50139100 </v>
    <v>       0.00000000       0.66072200       0.01009100 </v>
    <v>       0.00000000       0.34061600       0.00139100 </v>
    <v>       0.50000000       0.16602100       0.00000400 </v>
    <v>       0.50000000       0.83397900       0.00000400 </v>
    <v>       0.50000000       0.66602100       0.50000400 </v>
    <v>       0.50000000       0.33397900       0.50000400 </v>
    <v>       0.00000000       0.00000000       0.01216200 </v>
    <v>       0.00600400       0.50000000       0.50277200 </v>
    <v>       0.50000000       0.00000000       0.47240000 </v>
    <v>       0.50000000       0.49874000       0.97240000 </v>
    <v>       0.00000000       0.00071800       0.31436200 </v>
    <v>       0.00599000       0.49668800       0.81436200 </v>
    <v>       0.00000000       0.16816900       0.20329900 </v>
    <v>       0.00000000       0.83183100       0.19452700 </v>
    <v>       0.00000000       0.67207000       0.70329900 </v>
    <v>       0.00000000       0.33183100       0.70329900 </v>
    <v>       0.00000000       0.16838200       0.79934600 </v>
    <v>       0.00000000       0.83161800       0.79934600 </v>
    <v>       0.00000000       0.66838200       0.29618600 </v>
    <v>       0.00000000       0.33161800       0.29934600 </v>
    <v>       0.50000000       0.06837200       0.99633700 </v>
    <v>       0.50000000       0.93162800       0.99633700 </v>
    <v>       0.50000000       0.56837200       0.49633700 </v>
    <v>       0.50000000       0.43162800       0.49633700 </v>
    <v>       0.50000000       0.09818400       0.50567900 </v>
    <v>       0.50000000       0.90181600       0.50567900 </v>
    <v>       0.50000000       0.59818400       0.00567900 </v>
    <v>       0.50000000       0.40181600       0.99576600 </v>
    <v>       0.50000000       0.23406000       0.50152500 </v>
    <v>       0.50000000       0.76594000       0.50152500 </v>
    <v>       0.50000000       0.73406000       0.00152500 </v>
    <v>       0.50000000       0.26594000       0.00446500 </v>
    <v>       0.00000000       0.00000000       0.69474100 </v>
    <v>       0.00000000       0.50000000       0.19474100 </v>
   </varray>
  </structure>
  <varray name="forces" >
   <v>      -0.00129350      -0.07554987       0.09748730 </v>
   <v>      -0.00032174       0.04788892       0.05740766 </v>
   <v>       0.02269703       1.46602879      -0.60408828 </v>
   <v>      -0.03347104      -1.60051490      -0.07525063 </v>
   <v>       0.00221996       0.42932322       0.08420636 </v>
   <v>      -0.00249211      -0.44310175      -0.21675253 </v>
   <v>      -0.02297959       0.67294962       0.12826162 </v>
   <v>      -0.01301037      -0.48018947       0.11465550 </v>
   <v>      -0.00013975       0.04479094       0.99300129 </v>
   <v>      -0.11118897      -0.16992157       1.24504460 </v>
   <v>       0.00041543       0.06183573       0.05420858 </v>
   <v>       0.08965429       0.06363607      -0.22000995 </v>
   <v>      -0.00005415      -0.07621641      -1.02155285 </v>
   <v>      -0.08319328       0.28127654      -0.78638346 </v>
   <v>      -0.00186332      -0.23530170      -0.22689119 </v>
   <v>       0.00132124       0.22501742       0.11584370 </v>
   <v>      -0.00207767      -0.76333393      -0.26945875 </v>
   <v>      -0.00079946       0.48214200      -0.27003789 </v>
   <v>       0.00032024      -0.22084761       0.16087452 </v>
   <v>       0.00012678       0.23624935       0.18528015 </v>
   <v>       0.00188524      -0.59349340       0.56701590 </v>
   <v>       0.00019381       0.56179419       0.18331197 </v>
   <v>      -0.02262628      -0.47738656       0.21066676 </v>
   <v>       0.02309524       0.51034355       0.21769961 </v>
   <v>       0.04142934      -0.46446805       0.07976333 </v>
   <v>       0.08217616       0.52362006       0.00697863 </v>
   <v>       0.02630520       0.85803770      -0.19338808 </v>
   <v>      -0.02331312      -0.83291994      -0.21442656 </v>
   <v>       0.01574339       0.32831662      -0.09157929 </v>
   <v>       0.00274592      -0.37030413       0.05812802 </v>
   <v>      -0.01825840      -0.39263923      -0.02716818 </v>
   <v>       0.02586864       0.41083502      -0.08242445 </v>
   <v>      -0.03073712      -0.72666619       0.12685172 </v>
   <v>       0.02786647       0.71099270      -0.06083944 </v>
   <v>       0.00014826      -0.03447588      -0.16802160 </v>
   <v>       0.00360723       0.04225215      -0.15841410 </v>
  </varray>
  <varray name="stress" >
   <v>    -243.84818232       0.81878385      -0.00869811 </v>
   <v>       0.81878229    -257.66229959       0.18609369 </v>
   <v>      -0.00869771       0.18609330    -285.66305561 </v>
  </varray>
  <energy>
   <i name="e_fr_energy">   -188.63052859 </i>
   <i name="e_wo_entrp">   -188.63237720 </i>
   <i name="e_0_energy">      0.00554582 </i>
  </energy>
  <time name="totalsc">   68.79   97.81</time>
  <eigenvalues>
   <array>
    <dimension dim="1">band</dimension>
    <dimension dim="2">kpoint</dimension>
    <dimension dim="3">spin</dimension>
    <field>eigene</field>
    <field>occ</field>
    <set>
     <set comment="spin 1">
      <set comment="kpoint 1">
       <r>  -23.0211    1.0000 </r>
       <r>  -22.8432    1.0000 </r>
       <r>  -22.6621    1.0000 </r>
       <r>  -22.6397    1.0000 </r>
       <r>  -22.5832    1.0000 </r>
       <r>  -22.5201    1.0000 </r>
       <r>  -22.4197    1.0000 </r>
       <r>  -22.3800    1.0000 </r>
       <r>  -22.3181    1.0000 </r>
       <r>  -22.2816    1.0000 </r>
       <r>  -22.2589    1.0000 </r>
       <r>  -22.2283    1.0000 </r>
       <r>  -22.2157    1.0000 </r>
       <r>  -22.2085    1.0000 </r>
       <r>  -22.2013    1.0000 </r>
       <r>  -22.1837    1.0000 </r>
       <r>  -22.1655    1.0000 </r>
       <r>  -22.0795    1.0000 </r>
       <r>  -21.8278    1.0000 </r>
       <r>  -21.7122    1.0000 </r>
       <r>  -21.2912    1.0000 </r>
       <r>  -20.9288    1.0000 </r>
       <r>  -16.5595    1.0000 </r>
       <r>  -16.4842    1.0000 </r>
       <r>   -6.1970    1.0000 </r>
       <r>   -6.0501    1.0000 </r>
       <r>   -5.9274    1.0000 </r>
       <r>   -5.8123    1.0000 </r>
       <r>   -5.7699    1.0000 </r>
       <r>   -5.5349    1.0000 </r>
       <r>   -5.4994    1.0000 </r>
       <r>   -5.4610    1.0000 </r>
       <r>   -5.3098    1.0000 </r>
       <r>   -5.1669    1.0000 </r>
       <r>   -4.8140    1.0000 </r>
       <r>   -4.6857    1.0000 </r>
       <r>   -4.6092    1.0000 </r>
       <r>   -4.5658    1.0000 </r>
       <r>   -4.5065    1.0000 </r>
       <r>   -4.4800    1.0000 </r>
       <r>   -4.4521    1.0000 </r>
       <r>   -4.4167    1.0000 </r>
       <r>   -4.3860    1.0000 </r>
       <r>   -4.3544    1.0000 </r>
       <r>   -4.3291    1.0000 </r>
       <r>   -4.3248    1.0000 </r>
       <r>   -4.2828    1.0000 </r>
       <r>   -4.2551    1.0000 </r>
       <r>   -4.2433    1.0000 </r>
       <r>   -4.2303    1.0000 </r>
       <r>   -4.2263    1.0000 </r>
       <r>   -4.2091    1.0000 </r>
       <r>   -4.1990    1.0000 </r>
       <r>   -4.1910    1.0000 </r>
       <r>   -4.1854    1.0000 </r>
       <r>   -4.1409    1.0000 </r>
       <r>   -4.1031    1.0000 </r>
       <r>   -4.0795    1.0000 </r>
       <r>   -4.0274    1.0000 </r>
       <r>   -4.0107    1.0000 </r>
       <r>   -3.9694    1.0000 </r>
       <r>   -3.8907    1.0000 </r>
       <r>   -3.8152    1.0000 </r>
       <r>   -3.6443    1.0000 </r>
       <r>   -3.6067    1.0000 </r>
       <r>   -3.5895    1.0000 </r>
       <r>   -3.5869    1.0000 </r>
       <r>   -3.5113    1.0000 </r>
       <r>   -3.5045    1.0000 </r>
       <r>   -3.4735    1.0000 </r>
       <r>   -3.4677    1.0000 </r>
       <r>   -3.4328    1.0000 </r>
       <r>   -3.3850    1.0000 </r>
       <r>   -3.3629    1.0000 </r>
       <r>   -3.2599    1.0000 </r>
       <r>   -3.1740    1.0000 </r>
       <r>   -3.1718    1.0000 </r>
       <r>   -3.1283    1.0000 </r>
       <r>   -3.1030    1.0000 </r>
       <r>   -3.0793    1.0000 </r>
       <r>   -3.0777    1.0000 </r>
       <r>   -3.0020    1.0000 </r>
       <r>   -2.9818    1.0000 </r>
       <r>   -2.9110    1.0000 </r>
       <r>   -2.8110    1.0000 </r>
       <r>   -2.7973    1.0000 </r>
       <r>   -2.4873    1.0000 </r>
       <r>   -2.4272    1.0000 </r>
       <r>   -2.3109    1.0000 </r>
       <r>   -2.2328    1.0000 </r>
       <r>   -2.0249    1.0000 </r>
       <r>   -1.9762    1.0000 </r>
       <r>   -1.9596    1.0000 </r>
       <r>   -1.8379    1.0000 </r>
       <r>   -1.3046    1.0000 </r>
       <r>   -1.2948    1.0000 </r>
       <r>    0.7836    1.0000 </r>
       <r>    0.8173    1.0000 </r>
       <r>    0.8808    1.0000 </r>
       <r>    0.9007    1.0000 </r>
       <r>    0.9153    1.0000 </r>
       <r>    0.9304    1.0000 </r>
       <r>    0.9497    1.0000 </r>
       <r>    0.9568    1.0000 </r>
       <r>    0.9852    1.0000 </r>
       <r>    0.9889    1.0000 </r>
       <r>    1.0078    1.0000 </r>
       <r>    1.0353    1.0000 </r>
       <r>    1.0813    1.0000 </r>
       <r>    1.1235    1.0000 </r>
       <r>    1.1413    1.0000 </r>
       <r>    1.1925    1.0001 </r>
       <r>    1.1997    1.0002 </r>
       <r>    1.2035    1.0002 </r>
       <r>    1.2048    1.0002 </r>
       <r>    1.2167    1.0003 </r>
       <r>    1.2299    1.0004 </r>
       <r>    1.2652    1.0008 </r>
       <r>    1.2929    1.0015 </r>
       <r>    1.3063    1.0020 </r>
       <r>    1.3236    1.0029 </r>
       <r>    1.3455    1.0044 </r>
       <r>    1.3519    1.0049 </r>
       <r>    1.4587    1.0228 </r>
       <r>    1.5027    1.0322 </r>
       <r>    1.5657    1.0311 </r>
       <r>    1.6099    1.0020 </r>
       <r>    1.6449    0.9512 </r>
       <r>    1.6839    0.8595 </r>
       <r>    1.7114    0.7723 </r>
       <r>    1.7671    0.5547 </r>
       <r>    1.7846    0.4808 </r>
       <r>    1.8209    0.3309 </r>
       <r>    1.8996    0.0811 </r>
       <r>    1.9080    0.0629 </r>
       <r>    1.9857   -0.0278 </r>
       <r>    2.0551   -0.0326 </r>
       <r>    2.0591   -0.0320 </r>
       <r>    2.0842   -0.0267 </r>
       <r>    2.1076   -0.0213 </r>
       <r>    2.1102   -0.0207 </r>
       <r>    2.1252   -0.0174 </r>
       <r>    2.1537   -0.0120 </r>
       <r>    2.2179   -0.0041 </r>
       <r>    2.2356   -0.0029 </r>
       <r>    2.2959   -0.0008 </r>
       <r>    2.3245   -0.0004 </r>
       <r>    2.3320   -0.0003 </r>
       <r>    2.3671   -0.0001 </r>
       <r>    2.3877   -0.0001 </r>
       <r>    2.4914   -0.0000 </r>
       <r>    2.8424   -0.0000 </r>
       <r>    3.0128   -0.0000 </r>
       <r>    3.1389   -0.0000 </r>
       <r>    3.1878   -0.0000 </r>
       <r>    3.2236   -0.0000 </r>
       <r>    4.0392   -0.0000 </r>
       <r>    4.5922   -0.0000 </r>
       <r>    4.7978   -0.0000 </r>
       <r>    8.6542    0.0000 </r>
      </set>
     </set>
    </set>
   </array>
  </eigenvalues>
  <separator name="orbital magnetization" >
   <v name="MAGDIPOLOUT">      0.00000000      0.00000000      0.00000000</v>
  </separator>
  <dos>
   <i name="efermi">      1.78006306 </i>
   <total>
    <array>
     <dimension dim="1">gridpoints</dimension>
     <dimension dim="2">spin</dimension>
     <field>energy</field>
     <field>total</field>
     <field>integrated</field>
     <set>
      <set comment="spin 1">
       <r>   -25.0211     0.0000     0.0000 </r>
       <r>   -24.9022     0.0000     0.0000 </r>
       <r>   -24.7833     0.0000     0.0000 </r>
       <r>   -24.6644    -0.0000    -0.0000 </r>
       <r>   -24.5454    -0.0000    -0.0000 </r>
       <r>   -24.4265    -0.0000    -0.0000 </r>
       <r>   -24.3076    -0.0000    -0.0000 </r>
       <r>   -24.1887    -0.0000    -0.0000 </r>
       <r>   -24.0698    -0.0000    -0.0000 </r>
       <r>   -23.9509    -0.0000    -0.0000 </r>
       <r>   -23.8319    -0.0000    -0.0000 </r>
       <r>   -23.7130    -0.0001    -0.0000 </r>
       <r>   -23.5941    -0.0032    -0.0004 </r>
       <r>   -23.4752    -0.0484    -0.0061 </r>
       <r>   -23.3563    -0.2928    -0.0410 </r>
       <r>   -23.2373    -0.3402    -0.0814 </r>
       <r>   -23.1184     2.3563     0.1988 </r>
       <r>   -22.9995     7.8124     1.1278 </r>
       <r>   -22.8806    10.5479     2.3822 </r>
       <r>   -22.7617    13.1665     3.9479 </r>
       <r>   -22.6428    22.3056     6.6004 </r>
       <r>   -22.5238    29.1298    10.0645 </r>
       <r>   -22.4049    34.0128    14.1092 </r>
       <r>   -22.2860    56.7105    20.8530 </r>
       <r>   -22.1671    73.3681    29.5778 </r>
       <r>   -22.0482    46.6004    35.1194 </r>
       <r>   -21.9293    12.7116    36.6310 </r>
       <r>   -21.8103     8.2588    37.6131 </r>
       <r>   -21.6914    12.4919    39.0987 </r>
       <r>   -21.5725     6.9775    39.9284 </r>
       <r>   -21.4536     1.4936    40.1060 </r>
       <r>   -21.3347     4.5943    40.6524 </r>
       <r>   -21.2157     7.4028    41.5327 </r>
       <r>   -21.0968     4.3070    42.0449 </r>
       <r>   -20.9779     5.0672    42.6474 </r>
       <r>   -20.8590     7.6920    43.5622 </r>
       <r>   -20.7401     3.9949    44.0372 </r>
       <r>   -20.6212     0.1230    44.0518 </r>
       <r>   -20.5022    -0.3505    44.0102 </r>
       <r>   -20.3833    -0.0788    44.0008 </r>
       <r>   -20.2644    -0.0064    44.0000 </r>
       <r>   -20.1455    -0.0002    44.0000 </r>
       <r>   -20.0266    -0.0000    44.0000 </r>
       <r>   -19.9077    -0.0000    44.0000 </r>
       <r>   -19.7887    -0.0000    44.0000 </r>
       <r>   -19.6698    -0.0000    44.0000 </r>
       <r>   -19.5509     0.0000    44.0000 </r>
       <r>   -19.4320     0.0000    44.0000 </r>
       <r>   -19.3131     0.0000    44.0000 </r>
       <r>   -19.1941     0.0000    44.0000 </r>
       <r>   -19.0752     0.0000    44.0000 </r>
       <r>   -18.9563     0.0000    44.0000 </r>
       <r>   -18.8374     0.0000    44.0000 </r>
       <r>   -18.7185     0.0000    44.0000 </r>
       <r>   -18.5996     0.0000    44.0000 </r>
       <r>   -18.4806     0.0000    44.0000 </r>
       <r>   -18.3617     0.0000    44.0000 </r>
       <r>   -18.2428    -0.0000    44.0000 </r>
       <r>   -18.1239    -0.0000    44.0000 </r>
       <r>   -18.0050    -0.0000    44.0000 </r>
       <r>   -17.8861    -0.0000    44.0000 </r>
       <r>   -17.7671    -0.0000    44.0000 </r>
       <r>   -17.6482    -0.0000    44.0000 </r>
       <r>   -17.5293    -0.0000    44.0000 </r>
       <r>   -17.4104    -0.0000    44.0000 </r>
       <r>   -17.2915    -0.0000    44.0000 </r>
       <r>   -17.1726    -0.0012    43.9999 </r>
       <r>   -17.0536    -0.0246    43.9969 </r>
       <r>   -16.9347    -0.2255    43.9701 </r>
       <r>   -16.8158    -0.6807    43.8892 </r>
       <r>   -16.6969     1.1724    44.0286 </r>
       <r>   -16.5780     9.3430    45.1396 </r>
       <r>   -16.4590    15.2554    46.9538 </r>
       <r>   -16.3401     8.7854    47.9985 </r>
       <r>   -16.2212     0.9084    48.1065 </r>
       <r>   -16.1023    -0.6698    48.0269 </r>
       <r>   -15.9834    -0.2040    48.0026 </r>
       <r>   -15.8645    -0.0212    48.0001 </r>
       <r>   -15.7455    -0.0010    48.0000 </r>
       <r>   -15.6266    -0.0000    48.0000 </r>
       <r>   -15.5077    -0.0000    48.0000 </r>
       <r>   -15.3888    -0.0000    48.0000 </r>
       <r>   -15.2699    -0.0000    48.0000 </r>
       <r>   -15.1510    -0.0000    48.0000 </r>
       <r>   -15.0320     0.0000    48.0000 </r>
       <r>   -14.9131     0.0000    48.0000 </r>
       <r>   -14.7942     0.0000    48.0000 </r>
       <r>   -14.6753     0.0000    48.0000 </r>
       <r>   -14.5564     0.0000    48.0000 </r>
       <r>   -14.4374     0.0000    48.0000 </r>
       <r>   -14.3185     0.0000    48.0000 </r>
       <r>   -14.1996     0.0000    48.0000 </r>
       <r>   -14.0807     0.0000    48.0000 </r>
       <r>   -13.9618     0.0000    48.0000 </r>
       <r>   -13.8429     0.0000    48.0000 </r>
       <r>   -13.7239     0.0000    48.0000 </r>
       <r>   -13.6050     0.0000    48.0000 </r>
       <r>   -13.4861     0.0000    48.0000 </r>
       <r>   -13.3672     0.0000    48.0000 </r>
       <r>   -13.2483     0.0000    48.0000 </r>
       <r>   -13.1294     0.0000    48.0000 </r>
       <r>   -13.0104     0.0000    48.0000 </r>
       <r>   -12.8915     0.0000    48.0000 </r>
       <r>   -12.7726     0.0000    48.0000 </r>
       <r>   -12.6537     0.0000    48.0000 </r>
       <r>   -12.5348     0.0000    48.0000 </r>
       <r>   -12.4158     0.0000    48.0000 </r>
       <r>   -12.2969     0.0000    48.0000 </r>
       <r>   -12.1780     0.0000    48.0000 </r>
       <r>   -12.0591     0.0000    48.0000 </r>
       <r>   -11.9402     0.0000    48.0000 </r>
       <r>   -11.8213     0.0000    48.0000 </r>
       <r>   -11.7023     0.0000    48.0000 </r>
       <r>   -11.5834     0.0000    48.0000 </r>
       <r>   -11.4645     0.0000    48.0000 </r>
       <r>   -11.3456     0.0000    48.0000 </r>
       <r>   -11.2267     0.0000    48.0000 </r>
       <r>   -11.1078     0.0000    48.0000 </r>
       <r>   -10.9888     0.0000    48.0000 </r>
       <r>   -10.8699     0.0000    48.0000 </r>
       <r>   -10.7510     0.0000    48.0000 </r>
       <r>   -10.6321     0.0000    48.0000 </r>
       <r>   -10.5132     0.0000    48.0000 </r>
       <r>   -10.3942     0.0000    48.0000 </r>
       <r>   -10.2753     0.0000    48.0000 </r>
       <r>   -10.1564     0.0000    48.0000 </r>
       <r>   -10.0375     0.0000    48.0000 </r>
       <r>    -9.9186     0.0000    48.0000 </r>
       <r>    -9.7997     0.0000    48.0000 </r>
       <r>    -9.6807     0.0000    48.0000 </r>
       <r>    -9.5618     0.0000    48.0000 </r>
       <r>    -9.4429     0.0000    48.0000 </r>
       <r>    -9.3240     0.0000    48.0000 </r>
       <r>    -9.2051     0.0000    48.0000 </r>
       <r>    -9.0862     0.0000    48.0000 </r>
       <r>    -8.9672     0.0000    48.0000 </r>
       <r>    -8.8483     0.0000    48.0000 </r>
       <r>    -8.7294     0.0000    48.0000 </r>
       <r>    -8.6105     0.0000    48.0000 </r>
       <r>    -8.4916     0.0000    48.0000 </r>
       <r>    -8.3727     0.0000    48.0000 </r>
       <r>    -8.2537     0.0000    48.0000 </r>
       <r>    -8.1348     0.0000    48.0000 </r>
       <r>    -8.0159     0.0000    48.0000 </r>
       <r>    -7.8970    -0.0000    48.0000 </r>
       <r>    -7.7781    -0.0000    48.0000 </r>
       <r>    -7.6591    -0.0000    48.0000 </r>
       <r>    -7.5402    -0.0000    48.0000 </r>
       <r>    -7.4213    -0.0000    48.0000 </r>
       <r>    -7.3024    -0.0000    48.0000 </r>
       <r>    -7.1835    -0.0000    48.0000 </r>
       <r>    -7.0646    -0.0000    48.0000 </r>
       <r>    -6.9456    -0.0000    48.0000 </r>
       <r>    -6.8267    -0.0007    47.9999 </r>
       <r>    -6.7078    -0.0149    47.9982 </r>
       <r>    -6.5889    -0.1456    47.9808 </r>
       <r>    -6.4700    -0.4973    47.9217 </r>
       <r>    -6.3511     0.3996    47.9692 </r>
       <r>    -6.2321     5.4048    48.6119 </r>
       <r>    -6.1132    11.8044    50.0157 </r>
       <r>    -5.9943    15.5940    51.8701 </r>
       <r>    -5.8754    19.0391    54.1342 </r>
       <r>    -5.7565    19.3642    56.4369 </r>
       <r>    -5.6375    15.2189    58.2467 </r>
       <r>    -5.5186    19.4743    60.5626 </r>
       <r>    -5.3997    24.0330    63.4205 </r>
       <r>    -5.2808    18.2286    65.5882 </r>
       <r>    -5.1619    12.4465    67.0683 </r>
       <r>    -5.0430     6.4252    67.8324 </r>
       <r>    -4.9240     2.4497    68.1237 </r>
       <r>    -4.8051     7.1324    68.9718 </r>
       <r>    -4.6862    17.0875    71.0038 </r>
       <r>    -4.5673    31.3472    74.7316 </r>
       <r>    -4.4484    51.6255    80.8708 </r>
       <r>    -4.3295    79.0745    90.2741 </r>
       <r>    -4.2105   102.7207   102.4894 </r>
       <r>    -4.0916    92.6225   113.5039 </r>
       <r>    -3.9727    57.5943   120.3528 </r>
       <r>    -3.8538    29.3362   123.8414 </r>
       <r>    -3.7349    18.6330   126.0572 </r>
       <r>    -3.6159    35.0234   130.2221 </r>
       <r>    -3.4970    61.0482   137.4818 </r>
       <r>    -3.3781    59.5316   144.5612 </r>
       <r>    -3.2592    42.6922   149.6380 </r>
       <r>    -3.1403    47.5694   155.2949 </r>
       <r>    -3.0214    56.4093   162.0029 </r>
       <r>    -2.9024    44.3338   167.2750 </r>
       <r>    -2.7835    26.9297   170.4774 </r>
       <r>    -2.6646    11.9959   171.9039 </r>
       <r>    -2.5457     7.1756   172.7572 </r>
       <r>    -2.4268    15.9126   174.6495 </r>
       <r>    -2.3079    21.1127   177.1602 </r>
       <r>    -2.1889    17.0207   179.1842 </r>
       <r>    -2.0700    16.6028   181.1586 </r>
       <r>    -1.9511    25.1577   184.1503 </r>
       <r>    -1.8322    23.2309   186.9129 </r>
       <r>    -1.7133     9.3600   188.0259 </r>
       <r>    -1.5943    -0.1062   188.0133 </r>
       <r>    -1.4754    -0.0701   188.0050 </r>
       <r>    -1.3565     9.0772   189.0844 </r>
       <r>    -1.2376    16.0754   190.9960 </r>
       <r>    -1.1187     8.8471   192.0481 </r>
       <r>    -0.9998     0.5256   192.1106 </r>
       <r>    -0.8808    -0.7337   192.0234 </r>
       <r>    -0.7619    -0.1804   192.0019 </r>
       <r>    -0.6430    -0.0156   192.0001 </r>
       <r>    -0.5241    -0.0006   192.0000 </r>
       <r>    -0.4052    -0.0000   192.0000 </r>
       <r>    -0.2863    -0.0000   192.0000 </r>
       <r>    -0.1673    -0.0000   192.0000 </r>
       <r>    -0.0484    -0.0000   192.0000 </r>
       <r>     0.0705    -0.0001   192.0000 </r>
       <r>     0.1894    -0.0027   191.9997 </r>
       <r>     0.3083    -0.0550   191.9931 </r>
       <r>     0.4273    -0.5187   191.9314 </r>
       <r>     0.5462    -2.0091   191.6925 </r>
       <r>     0.6651    -0.4743   191.6361 </r>
       <r>     0.7840    19.0738   193.9043 </r>
       <r>     0.9029    59.8851   201.0257 </r>
       <r>     1.0218    87.5109   211.4323 </r>
       <r>     1.1408    92.1191   222.3869 </r>
       <r>     1.2597    97.4644   233.9771 </r>
       <r>     1.3786    80.4100   243.5393 </r>
       <r>     1.4975    47.5729   249.1965 </r>
       <r>     1.6164    40.3777   253.9982 </r>
       <r>     1.7353    48.6728   259.7862 </r>
       <r>     1.8543    47.8101   265.4717 </r>
       <r>     1.9732    47.3798   271.1060 </r>
       <r>     2.0921    62.3430   278.5196 </r>
       <r>     2.2110    71.4136   287.0120 </r>
       <r>     2.3299    63.1812   294.5253 </r>
       <r>     2.4488    44.1573   299.7764 </r>
       <r>     2.5678    17.9994   301.9169 </r>
       <r>     2.6867     2.5207   302.2166 </r>
       <r>     2.8056     3.5908   302.6436 </r>
       <r>     2.9245     9.6090   303.7863 </r>
       <r>     3.0434    15.5503   305.6355 </r>
       <r>     3.1624    23.9915   308.4885 </r>
       <r>     3.2813    22.5753   311.1731 </r>
       <r>     3.4002     8.3548   312.1666 </r>
       <r>     3.5191    -0.3878   312.1205 </r>
       <r>     3.6380    -0.9640   312.0059 </r>
       <r>     3.7569    -0.5633   311.9389 </r>
       <r>     3.8759     0.6128   312.0118 </r>
       <r>     3.9948     5.2350   312.6343 </r>
       <r>     4.1137     7.9622   313.5811 </r>
       <r>     4.2326     3.6337   314.0133 </r>
       <r>     4.3515    -0.3484   313.9718 </r>
       <r>     4.4704     1.2374   314.1190 </r>
       <r>     4.5894     6.7294   314.9192 </r>
       <r>     4.7083    10.2874   316.1426 </r>
       <r>     4.8272     9.8694   317.3162 </r>
       <r>     4.9461     5.5688   317.9785 </r>
       <r>     5.0650     0.7849   318.0718 </r>
       <r>     5.1840    -0.4347   318.0201 </r>
       <r>     5.3029    -0.1516   318.0021 </r>
       <r>     5.4218    -0.0166   318.0001 </r>
       <r>     5.5407    -0.0008   318.0000 </r>
       <r>     5.6596    -0.0000   318.0000 </r>
       <r>     5.7785    -0.0000   318.0000 </r>
       <r>     5.8975    -0.0000   318.0000 </r>
       <r>     6.0164    -0.0000   318.0000 </r>
       <r>     6.1353    -0.0000   318.0000 </r>
       <r>     6.2542     0.0000   318.0000 </r>
       <r>     6.3731     0.0000   318.0000 </r>
       <r>     6.4920     0.0000   318.0000 </r>
       <r>     6.6110     0.0000   318.0000 </r>
       <r>     6.7299     0.0000   318.0000 </r>
       <r>     6.8488     0.0000   318.0000 </r>
       <r>     6.9677    -0.0000   318.0000 </r>
       <r>     7.0866    -0.0000   318.0000 </r>
       <r>     7.2056    -0.0000   318.0000 </r>
       <r>     7.3245    -0.0000   318.0000 </r>
       <r>     7.4434    -0.0000   318.0000 </r>
       <r>     7.5623    -0.0000   318.0000 </r>
       <r>     7.6812    -0.0000   318.0000 </r>
       <r>     7.8001    -0.0000   318.0000 </r>
       <r>     7.9191    -0.0000   318.0000 </r>
       <r>     8.0380    -0.0010   317.9999 </r>
       <r>     8.1569    -0.0197   317.9975 </r>
       <r>     8.2758    -0.1670   317.9777 </r>
       <r>     8.3947    -0.3963   317.9305 </r>
       <r>     8.5136     1.2438   318.0785 </r>
       <r>     8.6326     6.2222   318.8184 </r>
       <r>     8.7515     7.6263   319.7253 </r>
       <r>     8.8704     2.8420   320.0633 </r>
       <r>     8.9893    -0.2021   320.0392 </r>
       <r>     9.1082    -0.2788   320.0061 </r>
       <r>     9.2272    -0.0478   320.0004 </r>
       <r>     9.3461    -0.0032   320.0000 </r>
       <r>     9.4650    -0.0001   320.0000 </r>
       <r>     9.5839    -0.0000   320.0000 </r>
       <r>     9.7028    -0.0000   320.0000 </r>
       <r>     9.8217    -0.0000   320.0000 </r>
       <r>     9.9407    -0.0000   320.0000 </r>
       <r>    10.0596     0.0000   320.0000 </r>
       <r>    10.1785     0.0000   320.0000 </r>
       <r>    10.2974     0.0000   320.0000 </r>
       <r>    10.4163     0.0000   320.0000 </r>
       <r>    10.5352     0.0000   320.0000 </r>
       <r>    10.6542     0.0000   320.0000 </r>
      </set>
     </set>
    </array>
   </total>
  </dos>
 </calculation>
 <structure name="finalpos" >
  <crystal>
   <varray name="basis" >
    <v>       3.25262800      -0.02730300       0.00000000 </v>
    <v>       0.00000000      20.54938400       0.00000000 </v>
    <v>       0.00000000       0.00000000       6.83604600 </v>
   </varray>
   <i name="volume">    456.91790879 </i>
   <varray name="rec_basis" >
    <v>       0.30744370       0.00000000       0.00000000 </v>
    <v>       0.00040849       0.04866326       0.00000000 </v>
    <v>       0.00000000       0.00000000       0.14628339 </v>
   </varray>
  </crystal>
  <varray name="positions" >
   <v>       0.00000000       0.16671900       0.50094400 </v>
   <v>       0.00000000       0.83328100       0.50139100 </v>
   <v>       0.00000000       0.66072200       0.01009100 </v>
   <v>       0.00000000       0.34061600       0.00139100 </v>
   <v>       0.50000000       0.16602100       0.00000400 </v>
   <v>       0.50000000       0.83397900       0.00000400 </v>
   <v>       0.50000000       0.66602100       0.50000400 </v>
   <v>       0.50000000       0.33397900       0.50000400 </v>
   <v>       0.00000000       0.00000000       0.01216200 </v>
   <v>       0.00600400       0.50000000       0.50277200 </v>
   <v>       0.50000000       0.00000000       0.47240000 </v>
   <v>       0.50000000       0.49874000       0.97240000 </v>
   <v>       0.00000000       0.00071800       0.31436200 </v>
   <v>       0.00599000       0.49668800       0.81436200 </v>
   <v>       0.00000000       0.16816900       0.20329900 </v>
   <v>       0.00000000       0.83183100       0.19452700 </v>
   <v>       0.00000000       0.67207000       0.70329900 </v>
   <v>       0.00000000       0.33183100       0.70329900 </v>
   <v>       0.00000000       0.16838200       0.79934600 </v>
   <v>       0.00000000       0.83161800       0.79934600 </v>
   <v>       0.00000000       0.66838200       0.29618600 </v>
   <v>       0.00000000       0.33161800       0.29934600 </v>
   <v>       0.50000000       0.06837200       0.99633700 </v>
   <v>       0.50000000       0.93162800       0.99633700 </v>
   <v>       0.50000000       0.56837200       0.49633700 </v>
   <v>       0.50000000       0.43162800       0.49633700 </v>
   <v>       0.50000000       0.09818400       0.50567900 </v>
   <v>       0.50000000       0.90181600       0.50567900 </v>
   <v>       0.50000000       0.59818400       0.00567900 </v>
   <v>       0.50000000       0.40181600       0.99576600 </v>
   <v>       0.50000000       0.23406000       0.50152500 </v>
   <v>       0.50000000       0.76594000       0.50152500 </v>
   <v>       0.50000000       0.73406000       0.00152500 </v>
   <v>       0.50000000       0.26594000       0.00446500 </v>
   <v>       0.00000000       0.00000000       0.69474100 </v>
   <v>       0.00000000       0.50000000       0.19474100 </v>
  </varray>
 </structure>
</modeling>
