<?xml version="1.0" encoding="ISO-8859-1"?>
<modeling>
 <generator>
  <i name="program" type="string">vasp </i>
  <i name="version" type="string">5.3.5  </i>
  <i name="subversion" type="string">31Mar14 (build Aug 29 2014 19:41:47) complex                          parallel </i>
  <i name="platform" type="string">LinuxIFC </i>
  <i name="date" type="string">2019 04 11 </i>
  <i name="time" type="string">12:50:10 </i>
 </generator>
 <incar>
  <i type="string" name="SYSTEM"> Fe4OF7_var_5</i>
  <i type="int" name="ISTART">     0</i>
  <i type="string" name="PREC">normal</i>
  <i type="string" name="ALGO"> VeryFast</i>
  <i type="int" name="ISPIN">     1</i>
  <i type="int" name="ICHARG">     2</i>
  <i type="int" name="NELM">   300</i>
  <i type="int" name="ISYM">     0</i>
  <i type="logical" name="LWAVE"> F  </i>
  <i type="int" name="NELM">   300</i>
 </incar>
 <kpoints>
  <generation param="Gamma">
   <v type="int" name="divisions">       1        1        1 </v>
   <v name="usershift">      0.00000000       0.00000000       0.00000000 </v>
   <v name="genvec1">      1.00000000       0.00000000       0.00000000 </v>
   <v name="genvec2">      0.00000000       1.00000000       0.00000000 </v>
   <v name="genvec3">      0.00000000       0.00000000       1.00000000 </v>
   <v name="shift">      0.00000000       0.00000000       0.00000000 </v>
  </generation>
  <varray name="kpointlist" >
   <v>       0.00000000       0.00000000       0.00000000 </v>
  </varray>
  <varray name="weights" >
   <v>       1.00000000 </v>
  </varray>
 </kpoints>
 <parameters>
  <separator name="general" >
   <i type="string" name="SYSTEM">Fe4OF7_var_5</i>
   <i type="logical" name="LCOMPAT"> F  </i>
  </separator>
  <separator name="electronic" >
   <i type="string" name="PREC">normal</i>
   <i name="ENMAX">    400.00000000</i>
   <i name="ENAUG">    613.61400000</i>
   <i name="EDIFF">      0.00010000</i>
   <i type="int" name="IALGO">    48</i>
   <i type="int" name="IWAVPR">    10</i>
   <i type="int" name="NBANDS">   104</i>
   <i name="NELECT">    174.00000000</i>
   <i type="int" name="TURBO">     0</i>
   <i type="int" name="IRESTART">     0</i>
   <i type="int" name="NREBOOT">     0</i>
   <i type="int" name="NMIN">     0</i>
   <i name="EREF">      0.00000000</i>
   <separator name="electronic smearing" >
    <i type="int" name="ISMEAR">     1</i>
    <i name="SIGMA">      0.20000000</i>
    <i name="KSPACING">      0.50000000</i>
    <i type="logical" name="KGAMMA"> T  </i>
   </separator>
   <separator name="electronic projectors" >
    <i type="logical" name="LREAL"> F  </i>
    <v name="ROPT">      0.00000000      0.00000000      0.00000000</v>
    <i type="int" name="LMAXPAW">  -100</i>
    <i type="int" name="LMAXMIX">     2</i>
    <i type="logical" name="NLSPLINE"> F  </i>
   </separator>
   <separator name="electronic startup" >
    <i type="int" name="ISTART">     0</i>
    <i type="int" name="ICHARG">     2</i>
    <i type="int" name="INIWAV">     1</i>
   </separator>
   <separator name="electronic spin" >
    <i type="int" name="ISPIN">     1</i>
    <i type="logical" name="LNONCOLLINEAR"> F  </i>
    <v name="MAGMOM">      1.00000000      1.00000000      1.00000000      1.00000000      1.00000000      1.00000000      1.00000000      1.00000000      1.00000000      1.00000000      1.00000000      1.00000000      1.00000000      1.00000000      1.00000000      1.00000000      1.00000000      1.00000000      1.00000000      1.00000000
      1.00000000      1.00000000      1.00000000      1.00000000</v>
    <i name="NUPDOWN">     -1.00000000</i>
    <i type="logical" name="LSORBIT"> F  </i>
    <v name="SAXIS">      0.00000000      0.00000000      1.00000000</v>
    <i type="logical" name="LSPIRAL"> F  </i>
    <v name="QSPIRAL">      0.00000000      0.00000000      0.00000000</v>
    <i type="logical" name="LZEROZ"> F  </i>
   </separator>
   <separator name="electronic exchange-correlation" >
    <i type="logical" name="LASPH"> F  </i>
    <i type="logical" name="LMETAGGA"> F  </i>
   </separator>
   <separator name="electronic convergence" >
    <i type="int" name="NELM">   300</i>
    <i type="int" name="NELMDL">   -12</i>
    <i type="int" name="NELMIN">     2</i>
    <i name="ENINI">    400.00000000</i>
    <separator name="electronic convergence detail" >
     <i type="logical" name="LDIAG"> T  </i>
     <i type="logical" name="LSUBROT"> F  </i>
     <i name="WEIMIN">      0.00000000</i>
     <i name="EBREAK">      0.00000024</i>
     <i name="DEPER">      0.30000000</i>
     <i type="int" name="NRMM">     4</i>
     <i name="TIME">      0.40000000</i>
    </separator>
   </separator>
   <separator name="electronic mixer" >
    <i name="AMIX">      0.40000000</i>
    <i name="BMIX">      1.00000000</i>
    <i name="AMIN">      0.10000000</i>
    <i name="AMIX_MAG">      1.60000000</i>
    <i name="BMIX_MAG">      1.00000000</i>
    <separator name="electronic mixer details" >
     <i type="int" name="IMIX">     4</i>
     <i type="int" name="MAXMIX">   -45</i>
     <i name="WC">    100.00000000</i>
     <i type="int" name="INIMIX">     1</i>
     <i type="int" name="MIXPRE">     1</i>
     <i type="int" name="MREMOVE">     5</i>
    </separator>
   </separator>
   <separator name="electronic dipolcorrection" >
    <i type="logical" name="LDIPOL"> F  </i>
    <i type="logical" name="LMONO"> F  </i>
    <i type="int" name="IDIPOL">     0</i>
    <i name="EPSILON">      1.00000000</i>
    <v name="DIPOL">   -100.00000000   -100.00000000   -100.00000000</v>
    <i name="EFIELD">      0.00000000</i>
   </separator>
  </separator>
  <separator name="grids" >
   <i type="int" name="NGX">    28</i>
   <i type="int" name="NGY">    24</i>
   <i type="int" name="NGZ">    54</i>
   <i type="int" name="NGXF">    56</i>
   <i type="int" name="NGYF">    48</i>
   <i type="int" name="NGZF">   108</i>
   <i type="logical" name="ADDGRID"> F  </i>
  </separator>
  <separator name="ionic" >
   <i type="int" name="NSW">     0</i>
   <i type="int" name="IBRION">    -1</i>
   <i type="int" name="ISIF">     2</i>
   <i name="PSTRESS">      0.00000000</i>
   <i name="EDIFFG">      0.00100000</i>
   <i type="int" name="NFREE">     0</i>
   <i name="POTIM">      0.50000000</i>
   <i name="SMASS">     -3.00000000</i>
   <i name="SCALEE">      1.00000000</i>
  </separator>
  <separator name="ionic md" >
   <i name="TEBEG">      0.00010000</i>
   <i name="TEEND">      0.00010000</i>
   <i type="int" name="NBLOCK">     1</i>
   <i type="int" name="KBLOCK">     1</i>
   <i type="int" name="NPACO">   256</i>
   <i name="APACO">     16.00000000</i>
  </separator>
  <separator name="symmetry" >
   <i type="int" name="ISYM">     0</i>
   <i name="SYMPREC">      0.00001000</i>
  </separator>
  <separator name="dos" >
   <i type="logical" name="LORBIT"> F  </i>
   <v name="RWIGS">     -1.00000000     -1.00000000     -1.00000000</v>
   <i type="int" name="NEDOS">   301</i>
   <i name="EMIN">     10.00000000</i>
   <i name="EMAX">    -10.00000000</i>
   <i name="EFERMI">      0.00000000</i>
  </separator>
  <separator name="writing" >
   <i type="int" name="NWRITE">     2</i>
   <i type="logical" name="LWAVE"> F  </i>
   <i type="logical" name="LCHARG"> T  </i>
   <i type="logical" name="LPARD"> F  </i>
   <i type="logical" name="LVTOT"> F  </i>
   <i type="logical" name="LVHAR"> F  </i>
   <i type="logical" name="LELF"> F  </i>
   <i type="logical" name="LOPTICS"> F  </i>
   <v name="STM">      0.00000000      0.00000000      0.00000000      0.00000000      0.00000000      0.00000000      0.00000000</v>
  </separator>
  <separator name="performance" >
   <i type="int" name="NPAR">     4</i>
   <i type="int" name="NSIM">     4</i>
   <i type="int" name="NBLK">    -1</i>
   <i type="logical" name="LPLANE"> T  </i>
   <i type="logical" name="LSCALAPACK"> T  </i>
   <i type="logical" name="LSCAAWARE"> F  </i>
   <i type="logical" name="LSCALU"> F  </i>
   <i type="logical" name="LASYNC"> F  </i>
   <i type="logical" name="LORBITALREAL"> F  </i>
  </separator>
  <separator name="miscellaneous" >
   <i type="int" name="IDIOT">     3</i>
   <i type="logical" name="LMUSIC"> F  </i>
   <v name="POMASS">     55.84700000     16.00000000     18.99800000</v>
   <v name="DARWINR">      0.00000000      0.00000000      0.00000000</v>
   <v name="DARWINV">      1.00000000      1.00000000      1.00000000</v>
   <i type="logical" name="LCORR"> T  </i>
  </separator>
  <i type="logical" name="GGA_COMPAT"> T  </i>
  <i type="logical" name="LBERRY"> F  </i>
  <i type="int" name="ICORELEVEL">     0</i>
  <i type="logical" name="LDAU"> F  </i>
  <i type="int" name="I_CONSTRAINED_M">     0</i>
  <separator name="electronic exchange-correlation" >
   <i type="string" name="GGA">--</i>
   <i type="int" name="VOSKOWN">     0</i>
   <i type="logical" name="LHFCALC"> F  </i>
   <i type="string" name="PRECFOCK"></i>
   <i type="logical" name="LSYMGRAD"> F  </i>
   <i type="logical" name="LHFONE"> F  </i>
   <i type="logical" name="LRHFCALC"> F  </i>
   <i type="logical" name="LTHOMAS"> F  </i>
   <i type="logical" name="LMODELHF"> F  </i>
   <i name="ENCUT4O">     -1.00000000</i>
   <i type="int" name="EXXOEP">     0</i>
   <i type="int" name="FOURORBIT">     0</i>
   <i name="AEXX">      0.00000000</i>
   <i name="HFALPHA">      0.00000000</i>
   <i name="MCALPHA">      0.00000000</i>
   <i name="ALDAX">      1.00000000</i>
   <i name="AGGAX">      1.00000000</i>
   <i name="ALDAC">      1.00000000</i>
   <i name="AGGAC">      1.00000000</i>
   <i type="int" name="NKREDX">     1</i>
   <i type="int" name="NKREDY">     1</i>
   <i type="int" name="NKREDZ">     1</i>
   <i type="logical" name="SHIFTRED"> F  </i>
   <i type="logical" name="ODDONLY"> F  </i>
   <i type="logical" name="EVENONLY"> F  </i>
   <i type="int" name="LMAXFOCK">     0</i>
   <i type="int" name="NMAXFOCKAE">     0</i>
   <i type="logical" name="LFOCKAEDFT"> F  </i>
   <i name="HFSCREEN">      0.00000000</i>
   <i name="HFSCREENC">      0.00000000</i>
   <i type="int" name="NBANDSGWLOW">     0</i>
  </separator>
  <separator name="vdW DFT" >
   <i type="logical" name="LUSE_VDW"> F  </i>
   <i name="Zab_VDW">     -0.84910000</i>
   <i name="PARAM1">      0.12340000</i>
   <i name="PARAM2">      1.00000000</i>
   <i name="PARAM3">      0.00000000</i>
  </separator>
  <separator name="model GW" >
   <i type="int" name="MODEL_GW">     0</i>
   <i name="MODEL_EPS0">      7.45171096</i>
   <i name="MODEL_ALPHA">      1.00000000</i>
  </separator>
  <separator name="linear response parameters" >
   <i type="logical" name="LEPSILON"> F  </i>
   <i type="logical" name="LRPA"> F  </i>
   <i type="logical" name="LNABLA"> F  </i>
   <i type="logical" name="LVEL"> F  </i>
   <i type="int" name="KINTER">     0</i>
   <i name="CSHIFT">      0.10000000</i>
   <i name="OMEGAMAX">     -1.00000000</i>
   <i name="DEG_THRESHOLD">      0.00200000</i>
  </separator>
  <separator name="orbital magnetization" >
   <i type="logical" name="NUCIND"> F  </i>
   <v name="MAGPOS">      0.00000000      0.00000000      0.00000000</v>
   <i type="logical" name="LNICSALL"> T  </i>
   <i type="logical" name="ORBITALMAG"> F  </i>
   <i type="logical" name="LMAGBLOCH"> F  </i>
   <i type="logical" name="LCHIMAG"> F  </i>
   <i type="logical" name="LGAUGE"> T  </i>
   <i type="int" name="MAGATOM">     0</i>
   <v name="MAGDIPOL">      0.00000000      0.00000000      0.00000000</v>
   <v name="AVECCONST">      0.00000000      0.00000000      0.00000000</v>
  </separator>
  <separator name="response functions" >
   <i type="logical" name="LADDER"> F  </i>
   <i type="logical" name="LFXC"> F  </i>
   <i type="logical" name="LHARTREE"> T  </i>
   <i type="int" name="IBSE">     0</i>
   <i type="logical" name="LTCTE"> F  </i>
   <i type="logical" name="LTETE"> F  </i>
   <i type="logical" name="LTRIPLET"> F  </i>
   <i type="logical" name="LFXCEPS"> F  </i>
   <i type="logical" name="LFXHEG"> F  </i>
   <i type="logical" name="L2ORDER"> F  </i>
   <i type="logical" name="LUSEW"> F  </i>
   <i name="ENCUTGW">     -2.00000000</i>
   <i name="ENCUTGWSOFT">     -2.00000000</i>
   <i name="ENCUTLF">     -1.00000000</i>
   <i type="int" name="LMAXMP2">    -1</i>
   <i name="SCISSOR">      0.00000000</i>
   <i type="int" name="NOMEGA">     0</i>
   <i type="int" name="NOMEGAR">     0</i>
   <i type="int" name="NBANDSGW">    -1</i>
   <i type="int" name="NBANDSO">    -1</i>
   <i type="int" name="NBANDSV">    -1</i>
   <i type="int" name="NELM">   300</i>
   <i type="int" name="DIM">     3</i>
   <i type="int" name="ANTIRES">     0</i>
   <i name="OMEGAMAX">    -30.00000000</i>
   <i name="OMEGAMIN">    -30.00000000</i>
   <i name="OMEGATL">   -200.00000000</i>
   <i type="int" name="OMEGAGRID">     0</i>
   <i name="CSHIFT">     -0.10000000</i>
   <i type="logical" name="SELFENERGY"> F  </i>
   <i type="logical" name="LSPECTRAL"> F  </i>
   <i type="logical" name="ODDONLYGW"> F  </i>
   <i type="logical" name="EVENONLYGW"> F  </i>
   <i type="int" name="NKREDLFX">     1</i>
   <i type="int" name="NKREDLFY">     1</i>
   <i type="int" name="NKREDLFZ">     1</i>
   <i type="int" name="MAXMEM">  1800</i>
   <i type="int" name="TELESCOPE">     0</i>
   <i type="int" name="TAUPAR">     1</i>
  </separator>
  <separator name="External order field" >
   <i name="OFIELD_KAPPA">      0.00000000</i>
   <v name="OFIELD_K">      0.00000000      0.00000000      0.00000000</v>
   <i name="OFIELD_Q6_NEAR">      0.00000000</i>
   <i name="OFIELD_Q6_FAR">      0.00000000</i>
   <i name="OFIELD_A">      0.00000000</i>
  </separator>
 </parameters>
 <atominfo>
  <atoms>      24 </atoms>
  <types>       3 </types>
  <array name="atoms" >
   <dimension dim="1">ion</dimension>
   <field type="string">element</field>
   <field type="int">atomtype</field>
   <set>
    <rc><c>Fe</c><c>   1</c></rc>
    <rc><c>Fe</c><c>   1</c></rc>
    <rc><c>Fe</c><c>   1</c></rc>
    <rc><c>Fe</c><c>   1</c></rc>
    <rc><c>Fe</c><c>   1</c></rc>
    <rc><c>Fe</c><c>   1</c></rc>
    <rc><c>Fe</c><c>   1</c></rc>
    <rc><c>Fe</c><c>   1</c></rc>
    <rc><c>O </c><c>   2</c></rc>
    <rc><c>O </c><c>   2</c></rc>
    <rc><c>F </c><c>   3</c></rc>
    <rc><c>F </c><c>   3</c></rc>
    <rc><c>F </c><c>   3</c></rc>
    <rc><c>F </c><c>   3</c></rc>
    <rc><c>F </c><c>   3</c></rc>
    <rc><c>F </c><c>   3</c></rc>
    <rc><c>F </c><c>   3</c></rc>
    <rc><c>F </c><c>   3</c></rc>
    <rc><c>F </c><c>   3</c></rc>
    <rc><c>F </c><c>   3</c></rc>
    <rc><c>F </c><c>   3</c></rc>
    <rc><c>F </c><c>   3</c></rc>
    <rc><c>F </c><c>   3</c></rc>
    <rc><c>F </c><c>   3</c></rc>
   </set>
  </array>
  <array name="atomtypes" >
   <dimension dim="1">type</dimension>
   <field type="int">atomspertype</field>
   <field type="string">element</field>
   <field>mass</field>
   <field>valence</field>
   <field type="string">pseudopotential</field>
   <set>
    <rc><c>   8</c><c>Fe</c><c>     55.84700000</c><c>      8.00000000</c><c>  PAW_PBE Fe 06Sep2000                  </c></rc>
    <rc><c>   2</c><c>O </c><c>     16.00000000</c><c>      6.00000000</c><c>  PAW_PBE O 08Apr2002                   </c></rc>
    <rc><c>  14</c><c>F </c><c>     18.99800000</c><c>      7.00000000</c><c>  PAW_PBE F 08Apr2002                   </c></rc>
   </set>
  </array>
 </atominfo>
 <structure name="initialpos" >
  <crystal>
   <varray name="basis" >
    <v>       5.73591900       0.00000000      -0.79026700 </v>
    <v>       0.00000000       4.77084100       0.00000000 </v>
    <v>       0.00000000       0.00000000      10.89226100 </v>
   </varray>
   <i name="volume">    298.06843821 </i>
   <varray name="rec_basis" >
    <v>       0.17433998       0.00000000       0.00000000 </v>
    <v>       0.00000000       0.20960665       0.00000000 </v>
    <v>       0.01264890       0.00000000       0.09180830 </v>
   </varray>
  </crystal>
  <varray name="positions" >
   <v>       0.24699400       0.24850600       0.74623300 </v>
   <v>       0.25466800       0.75149400       0.24623300 </v>
   <v>       0.51485700       0.24497600       0.49879200 </v>
   <v>       0.51485700       0.75502400       0.99879200 </v>
   <v>       0.75373900       0.23127500       0.26486200 </v>
   <v>       0.75373900       0.76872500       0.76486200 </v>
   <v>       0.99045900       0.24137200       0.99652900 </v>
   <v>       0.99045900       0.75862800       0.49652900 </v>
   <v>       0.77857200       0.05847800       0.41725200 </v>
   <v>       0.77033400       0.94152200       0.91725200 </v>
   <v>       0.01370000       0.05755600       0.18278600 </v>
   <v>       0.01370000       0.94244400       0.68278600 </v>
   <v>       0.22224900       0.44944100       0.57080400 </v>
   <v>       0.22224900       0.55055900       0.08066200 </v>
   <v>       0.27923300       0.05174700       0.92203700 </v>
   <v>       0.27923300       0.94825300       0.42203700 </v>
   <v>       0.48187500       0.45353000       0.31584000 </v>
   <v>       0.48187500       0.55087500       0.81584000 </v>
   <v>       0.52253600       0.03560000       0.67416600 </v>
   <v>       0.52253600       0.96440000       0.17416600 </v>
   <v>       0.72235300       0.44302000       0.09109400 </v>
   <v>       0.72235300       0.55698000       0.59109400 </v>
   <v>       0.97343300       0.45650500       0.81960400 </v>
   <v>       0.97343300       0.54349500       0.31960400 </v>
  </varray>
 </structure>
 <calculation>
  <scstep>
   <time name="diag">    0.33    0.57</time>
   <time name="diis">    0.12    0.20</time>
   <time name="orth">    0.05    0.05</time>
   <time name="total">    0.67    1.11</time>
   <energy>
    <i name="alphaZ">    635.54887562 </i>
    <i name="ewald"> -10615.65176302 </i>
    <i name="hartreedc">  -4390.18822373 </i>
    <i name="XCdc">    595.59811876 </i>
    <i name="pawpsdc">  12680.77512887 </i>
    <i name="pawaedc"> -12817.41364524 </i>
    <i name="eentropy">      0.07589782 </i>
    <i name="bandstr">   1184.46986008 </i>
    <i name="atom">  14851.27451460 </i>
    <i name="e_fr_energy">   2124.48876376 </i>
    <i name="e_wo_entrp">   2124.41286594 </i>
    <i name="e_0_energy">   2124.46346448 </i>
   </energy>
  </scstep>
  <scstep>
   <time name="diag">    0.03    0.07</time>
   <time name="diis">    0.09    0.12</time>
   <time name="orth">    0.01    0.01</time>
   <time name="total">    0.14    0.20</time>
   <energy>
    <i name="e_fr_energy">    663.03779385 </i>
    <i name="e_wo_entrp">    663.10764571 </i>
    <i name="e_0_energy">    663.06107780 </i>
   </energy>
  </scstep>
  <scstep>
   <time name="diag">    0.08    0.09</time>
   <time name="diis">    0.11    0.18</time>
   <time name="orth">    0.01    0.02</time>
   <time name="total">    0.19    0.29</time>
   <energy>
    <i name="e_fr_energy">    229.49992071 </i>
    <i name="e_wo_entrp">    229.56132464 </i>
    <i name="e_0_energy">    229.52038869 </i>
   </energy>
  </scstep>
  <scstep>
   <time name="diag">    0.11    0.17</time>
   <time name="diis">    0.11    0.20</time>
   <time name="orth">    0.05    0.07</time>
   <time name="total">    0.27    0.44</time>
   <energy>
    <i name="e_fr_energy">     44.36403698 </i>
    <i name="e_wo_entrp">     44.41796453 </i>
    <i name="e_0_energy">     44.38201283 </i>
   </energy>
  </scstep>
  <scstep>
   <time name="diag">    0.08    0.14</time>
   <time name="diis">    0.11    0.17</time>
   <time name="orth">    0.01    0.02</time>
   <time name="total">    0.21    0.34</time>
   <energy>
    <i name="e_fr_energy">    -58.50478007 </i>
    <i name="e_wo_entrp">    -58.57249435 </i>
    <i name="e_0_energy">    -58.52735150 </i>
   </energy>
  </scstep>
  <scstep>
   <time name="diag">    0.08    0.16</time>
   <time name="diis">    0.10    0.17</time>
   <time name="orth">    0.13    0.13</time>
   <time name="total">    0.31    0.46</time>
   <energy>
    <i name="e_fr_energy">   -109.27055908 </i>
    <i name="e_wo_entrp">   -109.28752879 </i>
    <i name="e_0_energy">   -109.27621565 </i>
   </energy>
  </scstep>
  <scstep>
   <time name="diag">    0.08    0.13</time>
   <time name="diis">    0.11    0.16</time>
   <time name="orth">    0.01    0.02</time>
   <time name="total">    0.21    0.31</time>
   <energy>
    <i name="e_fr_energy">   -134.03877194 </i>
    <i name="e_wo_entrp">   -134.07793274 </i>
    <i name="e_0_energy">   -134.05182554 </i>
   </energy>
  </scstep>
  <scstep>
   <time name="diag">    0.14    0.25</time>
   <time name="diis">    0.10    0.14</time>
   <time name="orth">    0.04    0.09</time>
   <time name="total">    0.28    0.47</time>
   <energy>
    <i name="e_fr_energy">   -144.48573339 </i>
    <i name="e_wo_entrp">   -144.51270152 </i>
    <i name="e_0_energy">   -144.49472276 </i>
   </energy>
  </scstep>
  <scstep>
   <time name="diag">    0.03    0.05</time>
   <time name="diis">    0.30    0.54</time>
   <time name="orth">    0.11    0.17</time>
   <time name="total">    0.44    0.77</time>
   <energy>
    <i name="e_fr_energy">   -155.26690356 </i>
    <i name="e_wo_entrp">   -155.29638828 </i>
    <i name="e_0_energy">   -155.27673180 </i>
   </energy>
  </scstep>
  <scstep>
   <time name="diag">    0.04    0.09</time>
   <time name="diis">    0.33    0.50</time>
   <time name="orth">    0.15    0.28</time>
   <time name="total">    0.53    0.87</time>
   <energy>
    <i name="e_fr_energy">   -155.69209643 </i>
    <i name="e_wo_entrp">   -155.73147203 </i>
    <i name="e_0_energy">   -155.70522163 </i>
   </energy>
  </scstep>
  <scstep>
   <time name="diag">    0.07    0.07</time>
   <time name="diis">    0.36    0.47</time>
   <time name="orth">    0.02    0.02</time>
   <time name="total">    0.46    0.56</time>
   <energy>
    <i name="e_fr_energy">   -155.93916786 </i>
    <i name="e_wo_entrp">   -155.98214189 </i>
    <i name="e_0_energy">   -155.95349254 </i>
   </energy>
  </scstep>
  <scstep>
   <time name="diag">    0.05    0.06</time>
   <time name="diis">    0.31    0.39</time>
   <time name="orth">    0.10    0.13</time>
   <time name="total">    0.49    0.62</time>
   <energy>
    <i name="e_fr_energy">   -156.07678518 </i>
    <i name="e_wo_entrp">   -156.12430205 </i>
    <i name="e_0_energy">   -156.09262414 </i>
   </energy>
  </scstep>
  <scstep>
   <time name="diag">    0.06    0.13</time>
   <time name="diis">    0.29    0.42</time>
   <time name="orth">    0.01    0.01</time>
   <time name="total">    0.53    0.76</time>
   <energy>
    <i name="e_fr_energy">   -153.25192421 </i>
    <i name="e_wo_entrp">   -153.17919592 </i>
    <i name="e_0_energy">   -153.22768145 </i>
   </energy>
  </scstep>
  <scstep>
   <time name="diag">    0.26    0.43</time>
   <time name="diis">    0.24    0.37</time>
   <time name="orth">    0.11    0.15</time>
   <time name="total">    0.89    1.36</time>
   <energy>
    <i name="e_fr_energy">   -178.44527136 </i>
    <i name="e_wo_entrp">   -178.39211477 </i>
    <i name="e_0_energy">   -178.42755250 </i>
   </energy>
  </scstep>
  <scstep>
   <time name="diag">    0.10    0.15</time>
   <time name="diis">    0.36    0.40</time>
   <time name="orth">    0.03    0.04</time>
   <time name="total">    0.62    0.74</time>
   <energy>
    <i name="e_fr_energy">   -149.99375683 </i>
    <i name="e_wo_entrp">   -149.95624613 </i>
    <i name="e_0_energy">   -149.98125326 </i>
   </energy>
  </scstep>
  <scstep>
   <time name="diag">    0.08    0.10</time>
   <time name="diis">    0.22    0.28</time>
   <time name="orth">    0.02    0.02</time>
   <time name="total">    0.57    0.76</time>
   <energy>
    <i name="e_fr_energy">   -136.58413854 </i>
    <i name="e_wo_entrp">   -136.47998529 </i>
    <i name="e_0_energy">   -136.54942079 </i>
   </energy>
  </scstep>
  <scstep>
   <time name="diag">    0.37    0.53</time>
   <time name="diis">    0.38    0.40</time>
   <time name="orth">    0.06    0.07</time>
   <time name="total">    0.93    1.18</time>
   <energy>
    <i name="e_fr_energy">   -175.61030981 </i>
    <i name="e_wo_entrp">   -175.64845727 </i>
    <i name="e_0_energy">   -175.62302563 </i>
   </energy>
  </scstep>
  <scstep>
   <time name="diag">    0.06    0.09</time>
   <time name="diis">    0.31    0.41</time>
   <time name="orth">    0.13    0.26</time>
   <time name="total">    0.67    0.94</time>
   <energy>
    <i name="e_fr_energy">   -154.68401060 </i>
    <i name="e_wo_entrp">   -154.66937222 </i>
    <i name="e_0_energy">   -154.67913114 </i>
   </energy>
  </scstep>
  <scstep>
   <time name="diag">    0.05    0.08</time>
   <time name="diis">    0.21    0.37</time>
   <time name="orth">    0.06    0.08</time>
   <time name="total">    0.46    0.72</time>
   <energy>
    <i name="e_fr_energy">   -137.30403457 </i>
    <i name="e_wo_entrp">   -137.23426011 </i>
    <i name="e_0_energy">   -137.28077642 </i>
   </energy>
  </scstep>
  <scstep>
   <time name="diag">    0.06    0.06</time>
   <time name="diis">    0.21    0.35</time>
   <time name="orth">    0.01    0.02</time>
   <time name="total">    0.41    0.62</time>
   <energy>
    <i name="e_fr_energy">   -154.62442178 </i>
    <i name="e_wo_entrp">   -154.63502565 </i>
    <i name="e_0_energy">   -154.62795641 </i>
   </energy>
  </scstep>
  <scstep>
   <time name="diag">    0.06    0.08</time>
   <time name="diis">    0.22    0.42</time>
   <time name="orth">    0.18    0.26</time>
   <time name="total">    0.68    1.17</time>
   <energy>
    <i name="e_fr_energy">   -137.29792607 </i>
    <i name="e_wo_entrp">   -137.24705565 </i>
    <i name="e_0_energy">   -137.28096926 </i>
   </energy>
  </scstep>
  <scstep>
   <time name="diag">    0.06    0.06</time>
   <time name="diis">    0.20    0.41</time>
   <time name="orth">    0.17    0.22</time>
   <time name="total">    0.74    1.24</time>
   <energy>
    <i name="e_fr_energy">   -136.67359716 </i>
    <i name="e_wo_entrp">   -136.72496689 </i>
    <i name="e_0_energy">   -136.69072041 </i>
   </energy>
  </scstep>
  <scstep>
   <time name="diag">    0.07    0.08</time>
   <time name="diis">    0.28    0.35</time>
   <time name="orth">    0.02    0.03</time>
   <time name="total">    0.46    0.61</time>
   <energy>
    <i name="e_fr_energy">   -133.37653218 </i>
    <i name="e_wo_entrp">   -133.38550672 </i>
    <i name="e_0_energy">   -133.37952369 </i>
   </energy>
  </scstep>
  <scstep>
   <time name="diag">    0.11    0.15</time>
   <time name="diis">    0.27    0.33</time>
   <time name="orth">    0.01    0.01</time>
   <time name="total">    0.63    0.84</time>
   <energy>
    <i name="e_fr_energy">   -133.23084139 </i>
    <i name="e_wo_entrp">   -133.27087982 </i>
    <i name="e_0_energy">   -133.24418753 </i>
   </energy>
  </scstep>
  <scstep>
   <time name="diag">    0.04    0.08</time>
   <time name="diis">    0.31    0.40</time>
   <time name="orth">    0.01    0.01</time>
   <time name="total">    0.48    0.73</time>
   <energy>
    <i name="e_fr_energy">   -132.67932229 </i>
    <i name="e_wo_entrp">   -132.70792251 </i>
    <i name="e_0_energy">   -132.68885570 </i>
   </energy>
  </scstep>
  <scstep>
   <time name="diag">    0.07    0.10</time>
   <time name="diis">    0.25    0.45</time>
   <time name="orth">    0.03    0.06</time>
   <time name="total">    0.43    0.73</time>
   <energy>
    <i name="e_fr_energy">   -132.87894882 </i>
    <i name="e_wo_entrp">   -132.88358359 </i>
    <i name="e_0_energy">   -132.88049374 </i>
   </energy>
  </scstep>
  <scstep>
   <time name="diag">    0.04    0.06</time>
   <time name="diis">    0.22    0.36</time>
   <time name="orth">    0.01    0.02</time>
   <time name="total">    0.38    0.55</time>
   <energy>
    <i name="e_fr_energy">   -132.69176820 </i>
    <i name="e_wo_entrp">   -132.72380755 </i>
    <i name="e_0_energy">   -132.70244798 </i>
   </energy>
  </scstep>
  <scstep>
   <time name="diag">    0.12    0.17</time>
   <time name="diis">    0.29    0.45</time>
   <time name="orth">    0.05    0.05</time>
   <time name="total">    0.56    0.80</time>
   <energy>
    <i name="e_fr_energy">   -132.58060724 </i>
    <i name="e_wo_entrp">   -132.58582700 </i>
    <i name="e_0_energy">   -132.58234716 </i>
   </energy>
  </scstep>
  <scstep>
   <time name="diag">    0.10    0.16</time>
   <time name="diis">    0.33    0.45</time>
   <time name="orth">    0.11    0.13</time>
   <time name="total">    0.67    0.95</time>
   <energy>
    <i name="e_fr_energy">   -132.56681774 </i>
    <i name="e_wo_entrp">   -132.58602629 </i>
    <i name="e_0_energy">   -132.57322059 </i>
   </energy>
  </scstep>
  <scstep>
   <time name="diag">    0.06    0.07</time>
   <time name="diis">    0.41    0.46</time>
   <time name="orth">    0.04    0.04</time>
   <time name="total">    0.69    0.77</time>
   <energy>
    <i name="e_fr_energy">   -132.59572449 </i>
    <i name="e_wo_entrp">   -132.61946457 </i>
    <i name="e_0_energy">   -132.60363785 </i>
   </energy>
  </scstep>
  <scstep>
   <time name="diag">    0.05    0.08</time>
   <time name="diis">    0.35    0.39</time>
   <time name="orth">    0.02    0.02</time>
   <time name="total">    0.60    0.69</time>
   <energy>
    <i name="e_fr_energy">   -132.59164476 </i>
    <i name="e_wo_entrp">   -132.61733020 </i>
    <i name="e_0_energy">   -132.60020657 </i>
   </energy>
  </scstep>
  <scstep>
   <time name="diag">    0.13    0.19</time>
   <time name="diis">    0.29    0.45</time>
   <time name="orth">    0.02    0.04</time>
   <time name="total">    0.71    1.02</time>
   <energy>
    <i name="e_fr_energy">   -132.59276873 </i>
    <i name="e_wo_entrp">   -132.61500667 </i>
    <i name="e_0_energy">   -132.60018138 </i>
   </energy>
  </scstep>
  <scstep>
   <time name="diag">    0.12    0.23</time>
   <time name="diis">    0.30    0.44</time>
   <time name="orth">    0.01    0.01</time>
   <time name="total">    0.67    1.01</time>
   <energy>
    <i name="e_fr_energy">   -132.58654864 </i>
    <i name="e_wo_entrp">   -132.61326967 </i>
    <i name="e_0_energy">   -132.59545565 </i>
   </energy>
  </scstep>
  <scstep>
   <time name="diag">    0.12    0.20</time>
   <time name="diis">    0.23    0.38</time>
   <time name="orth">    0.13    0.13</time>
   <time name="total">    0.60    0.85</time>
   <energy>
    <i name="e_fr_energy">   -132.58508482 </i>
    <i name="e_wo_entrp">   -132.60833128 </i>
    <i name="e_0_energy">   -132.59283364 </i>
   </energy>
  </scstep>
  <scstep>
   <time name="diag">    0.05    0.07</time>
   <time name="diis">    0.20    0.29</time>
   <time name="orth">    0.01    0.02</time>
   <time name="total">    0.51    0.71</time>
   <energy>
    <i name="e_fr_energy">   -132.58453954 </i>
    <i name="e_wo_entrp">   -132.60955115 </i>
    <i name="e_0_energy">   -132.59287674 </i>
   </energy>
  </scstep>
  <scstep>
   <time name="diag">    0.04    0.05</time>
   <time name="diis">    0.22    0.37</time>
   <time name="orth">    0.54    0.71</time>
   <time name="total">    0.94    1.31</time>
   <energy>
    <i name="e_fr_energy">   -132.58430867 </i>
    <i name="e_wo_entrp">   -132.60698915 </i>
    <i name="e_0_energy">   -132.59186883 </i>
   </energy>
  </scstep>
  <scstep>
   <time name="diag">    0.06    0.06</time>
   <time name="diis">    0.23    0.33</time>
   <time name="orth">    0.02    0.03</time>
   <time name="total">    0.47    0.64</time>
   <energy>
    <i name="e_fr_energy">   -132.58399253 </i>
    <i name="e_wo_entrp">   -132.60638401 </i>
    <i name="e_0_energy">   -132.59145636 </i>
   </energy>
  </scstep>
  <scstep>
   <time name="diag">    0.08    0.08</time>
   <time name="diis">    0.28    0.40</time>
   <time name="orth">    0.02    0.04</time>
   <time name="total">    0.52    0.68</time>
   <energy>
    <i name="e_fr_energy">   -132.58409383 </i>
    <i name="e_wo_entrp">   -132.60386692 </i>
    <i name="e_0_energy">   -132.59068486 </i>
   </energy>
  </scstep>
  <scstep>
   <time name="diag">    0.10    0.12</time>
   <time name="diis">    0.18    0.26</time>
   <time name="orth">    0.10    0.12</time>
   <time name="total">    0.55    0.85</time>
   <energy>
    <i name="alphaZ">    635.54887562 </i>
    <i name="ewald"> -10615.65176302 </i>
    <i name="hartreedc">  -4469.38267209 </i>
    <i name="XCdc">    604.81468549 </i>
    <i name="pawpsdc">  14881.39432244 </i>
    <i name="pawaedc"> -15022.15765638 </i>
    <i name="eentropy">      0.02021133 </i>
    <i name="bandstr">   -998.44462054 </i>
    <i name="atom">  14851.27451460 </i>
    <i name="e_fr_energy">   -132.58410255 </i>
    <i name="e_wo_entrp">   -132.60431388 </i>
    <i name="e_0_energy">   -132.59083966 </i>
   </energy>
  </scstep>
  <structure>
   <crystal>
    <varray name="basis" >
     <v>       5.73591900       0.00000000      -0.79026700 </v>
     <v>       0.00000000       4.77084100       0.00000000 </v>
     <v>       0.00000000       0.00000000      10.89226100 </v>
    </varray>
    <i name="volume">    298.06843821 </i>
    <varray name="rec_basis" >
     <v>       0.17433998       0.00000000       0.00000000 </v>
     <v>       0.00000000       0.20960665       0.00000000 </v>
     <v>       0.01264890       0.00000000       0.09180830 </v>
    </varray>
   </crystal>
   <varray name="positions" >
    <v>       0.24699400       0.24850600       0.74623300 </v>
    <v>       0.25466800       0.75149400       0.24623300 </v>
    <v>       0.51485700       0.24497600       0.49879200 </v>
    <v>       0.51485700       0.75502400       0.99879200 </v>
    <v>       0.75373900       0.23127500       0.26486200 </v>
    <v>       0.75373900       0.76872500       0.76486200 </v>
    <v>       0.99045900       0.24137200       0.99652900 </v>
    <v>       0.99045900       0.75862800       0.49652900 </v>
    <v>       0.77857200       0.05847800       0.41725200 </v>
    <v>       0.77033400       0.94152200       0.91725200 </v>
    <v>       0.01370000       0.05755600       0.18278600 </v>
    <v>       0.01370000       0.94244400       0.68278600 </v>
    <v>       0.22224900       0.44944100       0.57080400 </v>
    <v>       0.22224900       0.55055900       0.08066200 </v>
    <v>       0.27923300       0.05174700       0.92203700 </v>
    <v>       0.27923300       0.94825300       0.42203700 </v>
    <v>       0.48187500       0.45353000       0.31584000 </v>
    <v>       0.48187500       0.55087500       0.81584000 </v>
    <v>       0.52253600       0.03560000       0.67416600 </v>
    <v>       0.52253600       0.96440000       0.17416600 </v>
    <v>       0.72235300       0.44302000       0.09109400 </v>
    <v>       0.72235300       0.55698000       0.59109400 </v>
    <v>       0.97343300       0.45650500       0.81960400 </v>
    <v>       0.97343300       0.54349500       0.31960400 </v>
   </varray>
  </structure>
  <varray name="forces" >
   <v>       0.17482301      -0.00038488      -0.26552967 </v>
   <v>      -0.29418829       0.09502784       0.04047536 </v>
   <v>       0.92047556      -0.74951392      -0.77668653 </v>
   <v>       1.00197228       0.84585363      -0.74956942 </v>
   <v>       0.17434328       0.30145199      -0.17012544 </v>
   <v>      -0.02774760      -0.23827171      -0.13266151 </v>
   <v>      -1.11613855      -1.25886202      -0.29933247 </v>
   <v>      -0.91120670       1.21312036      -0.71710467 </v>
   <v>      -0.46516124      -0.18888170       1.37580897 </v>
   <v>      -0.11821664       0.14220903       1.17291330 </v>
   <v>       0.35597340      -0.39875395      -0.03690999 </v>
   <v>       0.28972936       0.39084697       0.03493070 </v>
   <v>       0.04881505      -0.18342023       0.27985023 </v>
   <v>       0.12298756       0.11534161      -0.31414752 </v>
   <v>      -0.31266380       0.28103451       0.00642971 </v>
   <v>      -0.16419149      -0.23753438      -0.07036272 </v>
   <v>      -0.12123417      -0.11333729       0.59257700 </v>
   <v>      -0.29209210      -0.02242165       0.56585963 </v>
   <v>      -0.31908189       0.69865018       0.14292199 </v>
   <v>      -0.24179891      -0.67849160       0.15529101 </v>
   <v>       0.19217614       0.06163084      -0.90520219 </v>
   <v>       0.23249195      -0.06367979      -0.90166827 </v>
   <v>       0.42993661      -0.38661881       0.49803674 </v>
   <v>       0.43999718       0.37500498       0.47420577 </v>
  </varray>
  <varray name="stress" >
   <v>    -241.76811532       0.92258912      21.25204949 </v>
   <v>       0.92258997    -257.17498856       0.47020713 </v>
   <v>      21.25204898       0.47020792    -287.49408805 </v>
  </varray>
  <energy>
   <i name="e_fr_energy">   -132.58410255 </i>
   <i name="e_wo_entrp">   -132.59083966 </i>
   <i name="e_0_energy">      0.02021133 </i>
  </energy>
  <time name="totalsc">   22.22   31.90</time>
  <eigenvalues>
   <array>
    <dimension dim="1">band</dimension>
    <dimension dim="2">kpoint</dimension>
    <dimension dim="3">spin</dimension>
    <field>eigene</field>
    <field>occ</field>
    <set>
     <set comment="spin 1">
      <set comment="kpoint 1">
       <r>  -22.6684    1.0000 </r>
       <r>  -22.5907    1.0000 </r>
       <r>  -22.3490    1.0000 </r>
       <r>  -22.2945    1.0000 </r>
       <r>  -22.2877    1.0000 </r>
       <r>  -22.2636    1.0000 </r>
       <r>  -22.1951    1.0000 </r>
       <r>  -22.1544    1.0000 </r>
       <r>  -22.1400    1.0000 </r>
       <r>  -22.0841    1.0000 </r>
       <r>  -21.9807    1.0000 </r>
       <r>  -21.9275    1.0000 </r>
       <r>  -21.8333    1.0000 </r>
       <r>  -21.8296    1.0000 </r>
       <r>  -16.7322    1.0000 </r>
       <r>  -16.7012    1.0000 </r>
       <r>   -6.1044    1.0000 </r>
       <r>   -5.7620    1.0000 </r>
       <r>   -5.3290    1.0000 </r>
       <r>   -5.2031    1.0000 </r>
       <r>   -5.1800    1.0000 </r>
       <r>   -5.0461    1.0000 </r>
       <r>   -4.9597    1.0000 </r>
       <r>   -4.9223    1.0000 </r>
       <r>   -4.8474    1.0000 </r>
       <r>   -4.8221    1.0000 </r>
       <r>   -4.7201    1.0000 </r>
       <r>   -4.5705    1.0000 </r>
       <r>   -4.5439    1.0000 </r>
       <r>   -4.4988    1.0000 </r>
       <r>   -4.4386    1.0000 </r>
       <r>   -4.3749    1.0000 </r>
       <r>   -4.3428    1.0000 </r>
       <r>   -4.2670    1.0000 </r>
       <r>   -4.2511    1.0000 </r>
       <r>   -4.2296    1.0000 </r>
       <r>   -4.1864    1.0000 </r>
       <r>   -4.1524    1.0000 </r>
       <r>   -4.0379    1.0000 </r>
       <r>   -4.0013    1.0000 </r>
       <r>   -3.9956    1.0000 </r>
       <r>   -3.9384    1.0000 </r>
       <r>   -3.9045    1.0000 </r>
       <r>   -3.8293    1.0000 </r>
       <r>   -3.6947    1.0000 </r>
       <r>   -3.6203    1.0000 </r>
       <r>   -3.4249    1.0000 </r>
       <r>   -3.3874    1.0000 </r>
       <r>   -3.3085    1.0000 </r>
       <r>   -3.2151    1.0000 </r>
       <r>   -3.0638    1.0000 </r>
       <r>   -3.0154    1.0000 </r>
       <r>   -2.9699    1.0000 </r>
       <r>   -2.9282    1.0000 </r>
       <r>   -2.7991    1.0000 </r>
       <r>   -2.7198    1.0000 </r>
       <r>   -2.7103    1.0000 </r>
       <r>   -2.6525    1.0000 </r>
       <r>   -2.4887    1.0000 </r>
       <r>   -2.4408    1.0000 </r>
       <r>   -2.3655    1.0000 </r>
       <r>   -2.2745    1.0000 </r>
       <r>   -1.5663    1.0000 </r>
       <r>   -1.5332    1.0000 </r>
       <r>    0.9369    1.0000 </r>
       <r>    0.9518    1.0000 </r>
       <r>    1.0258    1.0000 </r>
       <r>    1.0339    1.0000 </r>
       <r>    1.0635    1.0001 </r>
       <r>    1.0743    1.0001 </r>
       <r>    1.0897    1.0002 </r>
       <r>    1.1254    1.0005 </r>
       <r>    1.1977    1.0027 </r>
       <r>    1.2131    1.0036 </r>
       <r>    1.2643    1.0088 </r>
       <r>    1.2770    1.0107 </r>
       <r>    1.3315    1.0215 </r>
       <r>    1.3384    1.0231 </r>
       <r>    1.3806    1.0322 </r>
       <r>    1.4338    1.0336 </r>
       <r>    1.4413    1.0318 </r>
       <r>    1.4622    1.0229 </r>
       <r>    1.4994    0.9884 </r>
       <r>    1.5429    0.9092 </r>
       <r>    1.5667    0.8459 </r>
       <r>    1.5892    0.7735 </r>
       <r>    1.6104    0.6957 </r>
       <r>    1.6923    0.3580 </r>
       <r>    1.6961    0.3428 </r>
       <r>    1.8336   -0.0072 </r>
       <r>    1.9145   -0.0350 </r>
       <r>    1.9512   -0.0292 </r>
       <r>    1.9794   -0.0228 </r>
       <r>    2.0531   -0.0087 </r>
       <r>    2.1362   -0.0019 </r>
       <r>    2.1731   -0.0008 </r>
       <r>    2.4405   -0.0000 </r>
       <r>    2.4606   -0.0000 </r>
       <r>    2.8130   -0.0000 </r>
       <r>    2.9007   -0.0000 </r>
       <r>    2.9534   -0.0000 </r>
       <r>    3.0171   -0.0000 </r>
       <r>    3.2121   -0.0000 </r>
       <r>    4.2985   -0.0000 </r>
      </set>
     </set>
    </set>
   </array>
  </eigenvalues>
  <separator name="orbital magnetization" >
   <v name="MAGDIPOLOUT">      0.00000000      0.00000000      0.00000000</v>
  </separator>
  <dos>
   <i name="efermi">      1.65816724 </i>
   <total>
    <array>
     <dimension dim="1">gridpoints</dimension>
     <dimension dim="2">spin</dimension>
     <field>energy</field>
     <field>total</field>
     <field>integrated</field>
     <set>
      <set comment="spin 1">
       <r>   -24.6684     0.0000     0.0000 </r>
       <r>   -24.5652     0.0000     0.0000 </r>
       <r>   -24.4619     0.0000     0.0000 </r>
       <r>   -24.3587    -0.0000    -0.0000 </r>
       <r>   -24.2555    -0.0000    -0.0000 </r>
       <r>   -24.1523    -0.0000    -0.0000 </r>
       <r>   -24.0490    -0.0000    -0.0000 </r>
       <r>   -23.9458    -0.0000    -0.0000 </r>
       <r>   -23.8426    -0.0000    -0.0000 </r>
       <r>   -23.7394    -0.0000    -0.0000 </r>
       <r>   -23.6362    -0.0000    -0.0000 </r>
       <r>   -23.5329    -0.0000    -0.0000 </r>
       <r>   -23.4297    -0.0000    -0.0000 </r>
       <r>   -23.3265    -0.0003    -0.0000 </r>
       <r>   -23.2233    -0.0064    -0.0007 </r>
       <r>   -23.1200    -0.0663    -0.0075 </r>
       <r>   -23.0168    -0.3512    -0.0438 </r>
       <r>   -22.9136    -0.7040    -0.1165 </r>
       <r>   -22.8104     1.1196    -0.0009 </r>
       <r>   -22.7072     7.6668     0.7905 </r>
       <r>   -22.6039    13.3720     2.1708 </r>
       <r>   -22.5007    11.9725     3.4066 </r>
       <r>   -22.3975    15.5017     5.0068 </r>
       <r>   -22.2943    33.3707     8.4514 </r>
       <r>   -22.1910    47.9117    13.3970 </r>
       <r>   -22.0878    44.5716    17.9978 </r>
       <r>   -21.9846    34.3766    21.5462 </r>
       <r>   -21.8814    29.4861    24.5898 </r>
       <r>   -21.7781    23.2856    26.9935 </r>
       <r>   -21.6749    10.6142    28.0891 </r>
       <r>   -21.5717     0.9355    28.1856 </r>
       <r>   -21.4685    -1.1891    28.0629 </r>
       <r>   -21.3653    -0.5108    28.0102 </r>
       <r>   -21.2620    -0.0900    28.0009 </r>
       <r>   -21.1588    -0.0082    28.0000 </r>
       <r>   -21.0556    -0.0004    28.0000 </r>
       <r>   -20.9524    -0.0000    28.0000 </r>
       <r>   -20.8491    -0.0000    28.0000 </r>
       <r>   -20.7459    -0.0000    28.0000 </r>
       <r>   -20.6427    -0.0000    28.0000 </r>
       <r>   -20.5395    -0.0000    28.0000 </r>
       <r>   -20.4363     0.0000    28.0000 </r>
       <r>   -20.3330     0.0000    28.0000 </r>
       <r>   -20.2298     0.0000    28.0000 </r>
       <r>   -20.1266     0.0000    28.0000 </r>
       <r>   -20.0234     0.0000    28.0000 </r>
       <r>   -19.9201     0.0000    28.0000 </r>
       <r>   -19.8169     0.0000    28.0000 </r>
       <r>   -19.7137     0.0000    28.0000 </r>
       <r>   -19.6105     0.0000    28.0000 </r>
       <r>   -19.5072     0.0000    28.0000 </r>
       <r>   -19.4040     0.0000    28.0000 </r>
       <r>   -19.3008     0.0000    28.0000 </r>
       <r>   -19.1976     0.0000    28.0000 </r>
       <r>   -19.0944     0.0000    28.0000 </r>
       <r>   -18.9911     0.0000    28.0000 </r>
       <r>   -18.8879     0.0000    28.0000 </r>
       <r>   -18.7847     0.0000    28.0000 </r>
       <r>   -18.6815     0.0000    28.0000 </r>
       <r>   -18.5782     0.0000    28.0000 </r>
       <r>   -18.4750     0.0000    28.0000 </r>
       <r>   -18.3718    -0.0000    28.0000 </r>
       <r>   -18.2686    -0.0000    28.0000 </r>
       <r>   -18.1653    -0.0000    28.0000 </r>
       <r>   -18.0621    -0.0000    28.0000 </r>
       <r>   -17.9589    -0.0000    28.0000 </r>
       <r>   -17.8557    -0.0000    28.0000 </r>
       <r>   -17.7525    -0.0000    28.0000 </r>
       <r>   -17.6492    -0.0000    28.0000 </r>
       <r>   -17.5460    -0.0000    28.0000 </r>
       <r>   -17.4428    -0.0001    28.0000 </r>
       <r>   -17.3396    -0.0020    27.9998 </r>
       <r>   -17.2363    -0.0282    27.9969 </r>
       <r>   -17.1331    -0.2117    27.9750 </r>
       <r>   -17.0299    -0.7118    27.9016 </r>
       <r>   -16.9267    -0.1282    27.8883 </r>
       <r>   -16.8235     5.5335    28.4595 </r>
       <r>   -16.7202    14.3484    29.9406 </r>
       <r>   -16.6170    14.7686    31.4650 </r>
       <r>   -16.5138     6.1423    32.0991 </r>
       <r>   -16.4106     0.0550    32.1047 </r>
       <r>   -16.3073    -0.7423    32.0281 </r>
       <r>   -16.2041    -0.2368    32.0037 </r>
       <r>   -16.1009    -0.0331    32.0003 </r>
       <r>   -15.9977    -0.0024    32.0000 </r>
       <r>   -15.8944    -0.0001    32.0000 </r>
       <r>   -15.7912    -0.0000    32.0000 </r>
       <r>   -15.6880    -0.0000    32.0000 </r>
       <r>   -15.5848    -0.0000    32.0000 </r>
       <r>   -15.4816    -0.0000    32.0000 </r>
       <r>   -15.3783    -0.0000    32.0000 </r>
       <r>   -15.2751     0.0000    32.0000 </r>
       <r>   -15.1719     0.0000    32.0000 </r>
       <r>   -15.0687     0.0000    32.0000 </r>
       <r>   -14.9654     0.0000    32.0000 </r>
       <r>   -14.8622     0.0000    32.0000 </r>
       <r>   -14.7590     0.0000    32.0000 </r>
       <r>   -14.6558     0.0000    32.0000 </r>
       <r>   -14.5526     0.0000    32.0000 </r>
       <r>   -14.4493     0.0000    32.0000 </r>
       <r>   -14.3461     0.0000    32.0000 </r>
       <r>   -14.2429     0.0000    32.0000 </r>
       <r>   -14.1397     0.0000    32.0000 </r>
       <r>   -14.0364     0.0000    32.0000 </r>
       <r>   -13.9332     0.0000    32.0000 </r>
       <r>   -13.8300     0.0000    32.0000 </r>
       <r>   -13.7268     0.0000    32.0000 </r>
       <r>   -13.6235     0.0000    32.0000 </r>
       <r>   -13.5203     0.0000    32.0000 </r>
       <r>   -13.4171     0.0000    32.0000 </r>
       <r>   -13.3139     0.0000    32.0000 </r>
       <r>   -13.2107     0.0000    32.0000 </r>
       <r>   -13.1074     0.0000    32.0000 </r>
       <r>   -13.0042     0.0000    32.0000 </r>
       <r>   -12.9010     0.0000    32.0000 </r>
       <r>   -12.7978     0.0000    32.0000 </r>
       <r>   -12.6945     0.0000    32.0000 </r>
       <r>   -12.5913     0.0000    32.0000 </r>
       <r>   -12.4881     0.0000    32.0000 </r>
       <r>   -12.3849     0.0000    32.0000 </r>
       <r>   -12.2817     0.0000    32.0000 </r>
       <r>   -12.1784     0.0000    32.0000 </r>
       <r>   -12.0752     0.0000    32.0000 </r>
       <r>   -11.9720     0.0000    32.0000 </r>
       <r>   -11.8688     0.0000    32.0000 </r>
       <r>   -11.7655     0.0000    32.0000 </r>
       <r>   -11.6623     0.0000    32.0000 </r>
       <r>   -11.5591     0.0000    32.0000 </r>
       <r>   -11.4559     0.0000    32.0000 </r>
       <r>   -11.3526     0.0000    32.0000 </r>
       <r>   -11.2494     0.0000    32.0000 </r>
       <r>   -11.1462     0.0000    32.0000 </r>
       <r>   -11.0430     0.0000    32.0000 </r>
       <r>   -10.9398     0.0000    32.0000 </r>
       <r>   -10.8365     0.0000    32.0000 </r>
       <r>   -10.7333     0.0000    32.0000 </r>
       <r>   -10.6301     0.0000    32.0000 </r>
       <r>   -10.5269     0.0000    32.0000 </r>
       <r>   -10.4236     0.0000    32.0000 </r>
       <r>   -10.3204     0.0000    32.0000 </r>
       <r>   -10.2172     0.0000    32.0000 </r>
       <r>   -10.1140     0.0000    32.0000 </r>
       <r>   -10.0107     0.0000    32.0000 </r>
       <r>    -9.9075     0.0000    32.0000 </r>
       <r>    -9.8043     0.0000    32.0000 </r>
       <r>    -9.7011     0.0000    32.0000 </r>
       <r>    -9.5979     0.0000    32.0000 </r>
       <r>    -9.4946     0.0000    32.0000 </r>
       <r>    -9.3914     0.0000    32.0000 </r>
       <r>    -9.2882     0.0000    32.0000 </r>
       <r>    -9.1850     0.0000    32.0000 </r>
       <r>    -9.0817     0.0000    32.0000 </r>
       <r>    -8.9785     0.0000    32.0000 </r>
       <r>    -8.8753     0.0000    32.0000 </r>
       <r>    -8.7721     0.0000    32.0000 </r>
       <r>    -8.6689     0.0000    32.0000 </r>
       <r>    -8.5656     0.0000    32.0000 </r>
       <r>    -8.4624     0.0000    32.0000 </r>
       <r>    -8.3592     0.0000    32.0000 </r>
       <r>    -8.2560     0.0000    32.0000 </r>
       <r>    -8.1527     0.0000    32.0000 </r>
       <r>    -8.0495     0.0000    32.0000 </r>
       <r>    -7.9463     0.0000    32.0000 </r>
       <r>    -7.8431     0.0000    32.0000 </r>
       <r>    -7.7398    -0.0000    32.0000 </r>
       <r>    -7.6366    -0.0000    32.0000 </r>
       <r>    -7.5334    -0.0000    32.0000 </r>
       <r>    -7.4302    -0.0000    32.0000 </r>
       <r>    -7.3270    -0.0000    32.0000 </r>
       <r>    -7.2237    -0.0000    32.0000 </r>
       <r>    -7.1205    -0.0000    32.0000 </r>
       <r>    -7.0173    -0.0000    32.0000 </r>
       <r>    -6.9141    -0.0000    32.0000 </r>
       <r>    -6.8108    -0.0001    32.0000 </r>
       <r>    -6.7076    -0.0016    31.9998 </r>
       <r>    -6.6044    -0.0208    31.9977 </r>
       <r>    -6.5012    -0.1407    31.9832 </r>
       <r>    -6.3980    -0.4006    31.9418 </r>
       <r>    -6.2947     0.1782    31.9602 </r>
       <r>    -6.1915     3.5341    32.3250 </r>
       <r>    -6.0883     7.4367    33.0926 </r>
       <r>    -5.9851     6.5654    33.7703 </r>
       <r>    -5.8818     4.4177    34.2263 </r>
       <r>    -5.7786     6.4875    34.8960 </r>
       <r>    -5.6754     7.1170    35.6306 </r>
       <r>    -5.5722     2.8335    35.9231 </r>
       <r>    -5.4689     0.7168    35.9971 </r>
       <r>    -5.3657     6.0599    36.6226 </r>
       <r>    -5.2625    15.6805    38.2412 </r>
       <r>    -5.1593    22.0171    40.5139 </r>
       <r>    -5.0561    24.0178    42.9931 </r>
       <r>    -4.9528    28.1546    45.8993 </r>
       <r>    -4.8496    31.8712    49.1891 </r>
       <r>    -4.7464    27.4808    52.0258 </r>
       <r>    -4.6432    22.2375    54.3212 </r>
       <r>    -4.5399    26.9414    57.1021 </r>
       <r>    -4.4367    36.0895    60.8274 </r>
       <r>    -4.3335    43.1022    65.2765 </r>
       <r>    -4.2303    47.3291    70.1620 </r>
       <r>    -4.1270    45.4121    74.8495 </r>
       <r>    -4.0238    42.6799    79.2551 </r>
       <r>    -3.9206    41.3254    83.5208 </r>
       <r>    -3.8174    32.6581    86.8918 </r>
       <r>    -3.7142    21.5670    89.1180 </r>
       <r>    -3.6109    15.9797    90.7675 </r>
       <r>    -3.5077    15.0228    92.3182 </r>
       <r>    -3.4045    19.5893    94.3403 </r>
       <r>    -3.3013    23.6596    96.7825 </r>
       <r>    -3.1980    21.2087    98.9717 </r>
       <r>    -3.0948    21.2148   101.1616 </r>
       <r>    -2.9916    27.5730   104.0077 </r>
       <r>    -2.8884    30.0549   107.1101 </r>
       <r>    -2.7852    29.1265   110.1166 </r>
       <r>    -2.6819    29.4015   113.1515 </r>
       <r>    -2.5787    25.7585   115.8104 </r>
       <r>    -2.4755    23.0675   118.1915 </r>
       <r>    -2.3723    24.5838   120.7291 </r>
       <r>    -2.2690    20.7947   122.8755 </r>
       <r>    -2.1658    10.4158   123.9507 </r>
       <r>    -2.0626     1.8708   124.1438 </r>
       <r>    -1.9594    -1.0117   124.0394 </r>
       <r>    -1.8561    -1.2582   123.9095 </r>
       <r>    -1.7529    -0.0630   123.9030 </r>
       <r>    -1.6497     6.1115   124.5339 </r>
       <r>    -1.5465    14.7357   126.0549 </r>
       <r>    -1.4433    14.3488   127.5360 </r>
       <r>    -1.3400     5.5633   128.1103 </r>
       <r>    -1.2368    -0.1127   128.0987 </r>
       <r>    -1.1336    -0.7119   128.0252 </r>
       <r>    -1.0304    -0.2133   128.0032 </r>
       <r>    -0.9271    -0.0286   128.0002 </r>
       <r>    -0.8239    -0.0020   128.0000 </r>
       <r>    -0.7207    -0.0001   128.0000 </r>
       <r>    -0.6175    -0.0000   128.0000 </r>
       <r>    -0.5143    -0.0000   128.0000 </r>
       <r>    -0.4110    -0.0000   128.0000 </r>
       <r>    -0.3078    -0.0000   128.0000 </r>
       <r>    -0.2046    -0.0000   128.0000 </r>
       <r>    -0.1014    -0.0000   128.0000 </r>
       <r>     0.0019    -0.0000   128.0000 </r>
       <r>     0.1051    -0.0000   128.0000 </r>
       <r>     0.2083    -0.0001   128.0000 </r>
       <r>     0.3115    -0.0015   127.9998 </r>
       <r>     0.4148    -0.0247   127.9973 </r>
       <r>     0.5180    -0.2263   127.9739 </r>
       <r>     0.6212    -1.0873   127.8617 </r>
       <r>     0.7244    -2.1167   127.6432 </r>
       <r>     0.8276     2.6494   127.9167 </r>
       <r>     0.9309    22.2315   130.2115 </r>
       <r>     1.0341    49.9461   135.3671 </r>
       <r>     1.1373    63.9089   141.9639 </r>
       <r>     1.2405    61.9891   148.3626 </r>
       <r>     1.3438    61.1724   154.6770 </r>
       <r>     1.4470    65.2870   161.4161 </r>
       <r>     1.5502    65.5159   168.1788 </r>
       <r>     1.6534    54.3386   173.7878 </r>
       <r>     1.7566    36.3277   177.5377 </r>
       <r>     1.8599    27.6879   180.3957 </r>
       <r>     1.9631    32.1221   183.7114 </r>
       <r>     2.0663    34.8842   187.3123 </r>
       <r>     2.1695    27.6483   190.1662 </r>
       <r>     2.2728    16.0009   191.8179 </r>
       <r>     2.3760    11.7082   193.0264 </r>
       <r>     2.4792    14.5123   194.5244 </r>
       <r>     2.5824    10.8758   195.6470 </r>
       <r>     2.6857     4.3598   196.0971 </r>
       <r>     2.7889     8.7597   197.0013 </r>
       <r>     2.8921    20.8832   199.1569 </r>
       <r>     2.9953    25.9698   201.8376 </r>
       <r>     3.0985    19.6533   203.8662 </r>
       <r>     3.2018    11.8355   205.0879 </r>
       <r>     3.3050     6.9986   205.8104 </r>
       <r>     3.4082     2.5403   206.0726 </r>
       <r>     3.5114    -0.1320   206.0589 </r>
       <r>     3.6147    -0.4203   206.0156 </r>
       <r>     3.7179    -0.1340   206.0017 </r>
       <r>     3.8211    -0.0520   205.9964 </r>
       <r>     3.9243    -0.1946   205.9763 </r>
       <r>     4.0276    -0.4152   205.9334 </r>
       <r>     4.1308     0.6601   206.0015 </r>
       <r>     4.2340     4.6804   206.4847 </r>
       <r>     4.3372     8.1055   207.3213 </r>
       <r>     4.4404     5.8636   207.9266 </r>
       <r>     4.5437     1.3981   208.0709 </r>
       <r>     4.6469    -0.3625   208.0335 </r>
       <r>     4.7501    -0.2629   208.0064 </r>
       <r>     4.8533    -0.0556   208.0006 </r>
       <r>     4.9566    -0.0057   208.0000 </r>
       <r>     5.0598    -0.0003   208.0000 </r>
       <r>     5.1630    -0.0000   208.0000 </r>
       <r>     5.2662    -0.0000   208.0000 </r>
       <r>     5.3694    -0.0000   208.0000 </r>
       <r>     5.4727    -0.0000   208.0000 </r>
       <r>     5.5759    -0.0000   208.0000 </r>
       <r>     5.6791     0.0000   208.0000 </r>
       <r>     5.7823     0.0000   208.0000 </r>
       <r>     5.8856     0.0000   208.0000 </r>
       <r>     5.9888     0.0000   208.0000 </r>
       <r>     6.0920     0.0000   208.0000 </r>
       <r>     6.1952     0.0000   208.0000 </r>
       <r>     6.2985     0.0000   208.0000 </r>
      </set>
     </set>
    </array>
   </total>
  </dos>
 </calculation>
 <structure name="finalpos" >
  <crystal>
   <varray name="basis" >
    <v>       5.73591900       0.00000000      -0.79026700 </v>
    <v>       0.00000000       4.77084100       0.00000000 </v>
    <v>       0.00000000       0.00000000      10.89226100 </v>
   </varray>
   <i name="volume">    298.06843821 </i>
   <varray name="rec_basis" >
    <v>       0.17433998       0.00000000       0.00000000 </v>
    <v>       0.00000000       0.20960665       0.00000000 </v>
    <v>       0.01264890       0.00000000       0.09180830 </v>
   </varray>
  </crystal>
  <varray name="positions" >
   <v>       0.24699400       0.24850600       0.74623300 </v>
   <v>       0.25466800       0.75149400       0.24623300 </v>
   <v>       0.51485700       0.24497600       0.49879200 </v>
   <v>       0.51485700       0.75502400       0.99879200 </v>
   <v>       0.75373900       0.23127500       0.26486200 </v>
   <v>       0.75373900       0.76872500       0.76486200 </v>
   <v>       0.99045900       0.24137200       0.99652900 </v>
   <v>       0.99045900       0.75862800       0.49652900 </v>
   <v>       0.77857200       0.05847800       0.41725200 </v>
   <v>       0.77033400       0.94152200       0.91725200 </v>
   <v>       0.01370000       0.05755600       0.18278600 </v>
   <v>       0.01370000       0.94244400       0.68278600 </v>
   <v>       0.22224900       0.44944100       0.57080400 </v>
   <v>       0.22224900       0.55055900       0.08066200 </v>
   <v>       0.27923300       0.05174700       0.92203700 </v>
   <v>       0.27923300       0.94825300       0.42203700 </v>
   <v>       0.48187500       0.45353000       0.31584000 </v>
   <v>       0.48187500       0.55087500       0.81584000 </v>
   <v>       0.52253600       0.03560000       0.67416600 </v>
   <v>       0.52253600       0.96440000       0.17416600 </v>
   <v>       0.72235300       0.44302000       0.09109400 </v>
   <v>       0.72235300       0.55698000       0.59109400 </v>
   <v>       0.97343300       0.45650500       0.81960400 </v>
   <v>       0.97343300       0.54349500       0.31960400 </v>
  </varray>
 </structure>
</modeling>
