<?xml version="1.0" encoding="ISO-8859-1"?>
<modeling>
 <generator>
  <i name="program" type="string">vasp </i>
  <i name="version" type="string">5.3.5  </i>
  <i name="subversion" type="string">31Mar14 (build Aug 29 2014 19:41:47) complex                          parallel </i>
  <i name="platform" type="string">LinuxIFC </i>
  <i name="date" type="string">2019 04 11 </i>
  <i name="time" type="string">13:14:24 </i>
 </generator>
 <incar>
  <i type="string" name="SYSTEM"> Fe4OF8_var_2</i>
  <i type="int" name="ISTART">     0</i>
  <i type="string" name="PREC">normal</i>
  <i type="string" name="ALGO"> VeryFast</i>
  <i type="int" name="ISPIN">     1</i>
  <i type="int" name="ICHARG">     2</i>
  <i type="int" name="NELM">   300</i>
  <i type="int" name="ISYM">     0</i>
  <i type="logical" name="LWAVE"> F  </i>
  <i type="int" name="NELM">   300</i>
 </incar>
 <kpoints>
  <generation param="Gamma">
   <v type="int" name="divisions">       1        1        1 </v>
   <v name="usershift">      0.00000000       0.00000000       0.00000000 </v>
   <v name="genvec1">      1.00000000       0.00000000       0.00000000 </v>
   <v name="genvec2">      0.00000000       1.00000000       0.00000000 </v>
   <v name="genvec3">     -0.00000000       0.00000000       1.00000000 </v>
   <v name="shift">      0.00000000       0.00000000       0.00000000 </v>
  </generation>
  <varray name="kpointlist" >
   <v>       0.00000000       0.00000000       0.00000000 </v>
  </varray>
  <varray name="weights" >
   <v>       1.00000000 </v>
  </varray>
 </kpoints>
 <parameters>
  <separator name="general" >
   <i type="string" name="SYSTEM">Fe4OF8_var_2</i>
   <i type="logical" name="LCOMPAT"> F  </i>
  </separator>
  <separator name="electronic" >
   <i type="string" name="PREC">normal</i>
   <i name="ENMAX">    400.00000000</i>
   <i name="ENAUG">    613.61400000</i>
   <i name="EDIFF">      0.00010000</i>
   <i type="int" name="IALGO">    48</i>
   <i type="int" name="IWAVPR">    10</i>
   <i type="int" name="NBANDS">   228</i>
   <i name="NELECT">    376.00000000</i>
   <i type="int" name="TURBO">     0</i>
   <i type="int" name="IRESTART">     0</i>
   <i type="int" name="NREBOOT">     0</i>
   <i type="int" name="NMIN">     0</i>
   <i name="EREF">      0.00000000</i>
   <separator name="electronic smearing" >
    <i type="int" name="ISMEAR">     1</i>
    <i name="SIGMA">      0.20000000</i>
    <i name="KSPACING">      0.50000000</i>
    <i type="logical" name="KGAMMA"> T  </i>
   </separator>
   <separator name="electronic projectors" >
    <i type="logical" name="LREAL"> F  </i>
    <v name="ROPT">      0.00000000      0.00000000      0.00000000</v>
    <i type="int" name="LMAXPAW">  -100</i>
    <i type="int" name="LMAXMIX">     2</i>
    <i type="logical" name="NLSPLINE"> F  </i>
   </separator>
   <separator name="electronic startup" >
    <i type="int" name="ISTART">     0</i>
    <i type="int" name="ICHARG">     2</i>
    <i type="int" name="INIWAV">     1</i>
   </separator>
   <separator name="electronic spin" >
    <i type="int" name="ISPIN">     1</i>
    <i type="logical" name="LNONCOLLINEAR"> F  </i>
    <v name="MAGMOM">      1.00000000      1.00000000      1.00000000      1.00000000      1.00000000      1.00000000      1.00000000      1.00000000      1.00000000      1.00000000      1.00000000      1.00000000      1.00000000      1.00000000      1.00000000      1.00000000      1.00000000      1.00000000      1.00000000      1.00000000
      1.00000000      1.00000000      1.00000000      1.00000000      1.00000000      1.00000000      1.00000000      1.00000000      1.00000000      1.00000000      1.00000000      1.00000000      1.00000000      1.00000000      1.00000000      1.00000000      1.00000000      1.00000000      1.00000000      1.00000000
      1.00000000      1.00000000      1.00000000      1.00000000      1.00000000      1.00000000      1.00000000      1.00000000      1.00000000      1.00000000      1.00000000      1.00000000</v>
    <i name="NUPDOWN">     -1.00000000</i>
    <i type="logical" name="LSORBIT"> F  </i>
    <v name="SAXIS">      0.00000000      0.00000000      1.00000000</v>
    <i type="logical" name="LSPIRAL"> F  </i>
    <v name="QSPIRAL">      0.00000000      0.00000000      0.00000000</v>
    <i type="logical" name="LZEROZ"> F  </i>
   </separator>
   <separator name="electronic exchange-correlation" >
    <i type="logical" name="LASPH"> F  </i>
    <i type="logical" name="LMETAGGA"> F  </i>
   </separator>
   <separator name="electronic convergence" >
    <i type="int" name="NELM">   300</i>
    <i type="int" name="NELMDL">   -12</i>
    <i type="int" name="NELMIN">     2</i>
    <i name="ENINI">    400.00000000</i>
    <separator name="electronic convergence detail" >
     <i type="logical" name="LDIAG"> T  </i>
     <i type="logical" name="LSUBROT"> F  </i>
     <i name="WEIMIN">      0.00000000</i>
     <i name="EBREAK">      0.00000011</i>
     <i name="DEPER">      0.30000000</i>
     <i type="int" name="NRMM">     4</i>
     <i name="TIME">      0.40000000</i>
    </separator>
   </separator>
   <separator name="electronic mixer" >
    <i name="AMIX">      0.40000000</i>
    <i name="BMIX">      1.00000000</i>
    <i name="AMIN">      0.10000000</i>
    <i name="AMIX_MAG">      1.60000000</i>
    <i name="BMIX_MAG">      1.00000000</i>
    <separator name="electronic mixer details" >
     <i type="int" name="IMIX">     4</i>
     <i type="int" name="MAXMIX">   -45</i>
     <i name="WC">    100.00000000</i>
     <i type="int" name="INIMIX">     1</i>
     <i type="int" name="MIXPRE">     1</i>
     <i type="int" name="MREMOVE">     5</i>
    </separator>
   </separator>
   <separator name="electronic dipolcorrection" >
    <i type="logical" name="LDIPOL"> F  </i>
    <i type="logical" name="LMONO"> F  </i>
    <i type="int" name="IDIPOL">     0</i>
    <i name="EPSILON">      1.00000000</i>
    <v name="DIPOL">   -100.00000000   -100.00000000   -100.00000000</v>
    <i name="EFIELD">      0.00000000</i>
   </separator>
  </separator>
  <separator name="grids" >
   <i type="int" name="NGX">    48</i>
   <i type="int" name="NGY">    28</i>
   <i type="int" name="NGZ">    80</i>
   <i type="int" name="NGXF">    96</i>
   <i type="int" name="NGYF">    56</i>
   <i type="int" name="NGZF">   160</i>
   <i type="logical" name="ADDGRID"> F  </i>
  </separator>
  <separator name="ionic" >
   <i type="int" name="NSW">     0</i>
   <i type="int" name="IBRION">    -1</i>
   <i type="int" name="ISIF">     2</i>
   <i name="PSTRESS">      0.00000000</i>
   <i name="EDIFFG">      0.00100000</i>
   <i type="int" name="NFREE">     0</i>
   <i name="POTIM">      0.50000000</i>
   <i name="SMASS">     -3.00000000</i>
   <i name="SCALEE">      1.00000000</i>
  </separator>
  <separator name="ionic md" >
   <i name="TEBEG">      0.00010000</i>
   <i name="TEEND">      0.00010000</i>
   <i type="int" name="NBLOCK">     1</i>
   <i type="int" name="KBLOCK">     1</i>
   <i type="int" name="NPACO">   256</i>
   <i name="APACO">     16.00000000</i>
  </separator>
  <separator name="symmetry" >
   <i type="int" name="ISYM">     0</i>
   <i name="SYMPREC">      0.00001000</i>
  </separator>
  <separator name="dos" >
   <i type="logical" name="LORBIT"> F  </i>
   <v name="RWIGS">     -1.00000000     -1.00000000     -1.00000000</v>
   <i type="int" name="NEDOS">   301</i>
   <i name="EMIN">     10.00000000</i>
   <i name="EMAX">    -10.00000000</i>
   <i name="EFERMI">      0.00000000</i>
  </separator>
  <separator name="writing" >
   <i type="int" name="NWRITE">     2</i>
   <i type="logical" name="LWAVE"> F  </i>
   <i type="logical" name="LCHARG"> T  </i>
   <i type="logical" name="LPARD"> F  </i>
   <i type="logical" name="LVTOT"> F  </i>
   <i type="logical" name="LVHAR"> F  </i>
   <i type="logical" name="LELF"> F  </i>
   <i type="logical" name="LOPTICS"> F  </i>
   <v name="STM">      0.00000000      0.00000000      0.00000000      0.00000000      0.00000000      0.00000000      0.00000000</v>
  </separator>
  <separator name="performance" >
   <i type="int" name="NPAR">     4</i>
   <i type="int" name="NSIM">     4</i>
   <i type="int" name="NBLK">    -1</i>
   <i type="logical" name="LPLANE"> T  </i>
   <i type="logical" name="LSCALAPACK"> T  </i>
   <i type="logical" name="LSCAAWARE"> F  </i>
   <i type="logical" name="LSCALU"> F  </i>
   <i type="logical" name="LASYNC"> F  </i>
   <i type="logical" name="LORBITALREAL"> F  </i>
  </separator>
  <separator name="miscellaneous" >
   <i type="int" name="IDIOT">     3</i>
   <i type="logical" name="LMUSIC"> F  </i>
   <v name="POMASS">     55.84700000     16.00000000     18.99800000</v>
   <v name="DARWINR">      0.00000000      0.00000000      0.00000000</v>
   <v name="DARWINV">      1.00000000      1.00000000      1.00000000</v>
   <i type="logical" name="LCORR"> T  </i>
  </separator>
  <i type="logical" name="GGA_COMPAT"> T  </i>
  <i type="logical" name="LBERRY"> F  </i>
  <i type="int" name="ICORELEVEL">     0</i>
  <i type="logical" name="LDAU"> F  </i>
  <i type="int" name="I_CONSTRAINED_M">     0</i>
  <separator name="electronic exchange-correlation" >
   <i type="string" name="GGA">--</i>
   <i type="int" name="VOSKOWN">     0</i>
   <i type="logical" name="LHFCALC"> F  </i>
   <i type="string" name="PRECFOCK"></i>
   <i type="logical" name="LSYMGRAD"> F  </i>
   <i type="logical" name="LHFONE"> F  </i>
   <i type="logical" name="LRHFCALC"> F  </i>
   <i type="logical" name="LTHOMAS"> F  </i>
   <i type="logical" name="LMODELHF"> F  </i>
   <i name="ENCUT4O">     -1.00000000</i>
   <i type="int" name="EXXOEP">     0</i>
   <i type="int" name="FOURORBIT">     0</i>
   <i name="AEXX">      0.00000000</i>
   <i name="HFALPHA">      0.00000000</i>
   <i name="MCALPHA">      0.00000000</i>
   <i name="ALDAX">      1.00000000</i>
   <i name="AGGAX">      1.00000000</i>
   <i name="ALDAC">      1.00000000</i>
   <i name="AGGAC">      1.00000000</i>
   <i type="int" name="NKREDX">     1</i>
   <i type="int" name="NKREDY">     1</i>
   <i type="int" name="NKREDZ">     1</i>
   <i type="logical" name="SHIFTRED"> F  </i>
   <i type="logical" name="ODDONLY"> F  </i>
   <i type="logical" name="EVENONLY"> F  </i>
   <i type="int" name="LMAXFOCK">     0</i>
   <i type="int" name="NMAXFOCKAE">     0</i>
   <i type="logical" name="LFOCKAEDFT"> F  </i>
   <i name="HFSCREEN">      0.00000000</i>
   <i name="HFSCREENC">      0.00000000</i>
   <i type="int" name="NBANDSGWLOW">     0</i>
  </separator>
  <separator name="vdW DFT" >
   <i type="logical" name="LUSE_VDW"> F  </i>
   <i name="Zab_VDW">     -0.84910000</i>
   <i name="PARAM1">      0.12340000</i>
   <i name="PARAM2">      1.00000000</i>
   <i name="PARAM3">      0.00000000</i>
  </separator>
  <separator name="model GW" >
   <i type="int" name="MODEL_GW">     0</i>
   <i name="MODEL_EPS0">      8.69476215</i>
   <i name="MODEL_ALPHA">      1.00000000</i>
  </separator>
  <separator name="linear response parameters" >
   <i type="logical" name="LEPSILON"> F  </i>
   <i type="logical" name="LRPA"> F  </i>
   <i type="logical" name="LNABLA"> F  </i>
   <i type="logical" name="LVEL"> F  </i>
   <i type="int" name="KINTER">     0</i>
   <i name="CSHIFT">      0.10000000</i>
   <i name="OMEGAMAX">     -1.00000000</i>
   <i name="DEG_THRESHOLD">      0.00200000</i>
  </separator>
  <separator name="orbital magnetization" >
   <i type="logical" name="NUCIND"> F  </i>
   <v name="MAGPOS">      0.00000000      0.00000000      0.00000000</v>
   <i type="logical" name="LNICSALL"> T  </i>
   <i type="logical" name="ORBITALMAG"> F  </i>
   <i type="logical" name="LMAGBLOCH"> F  </i>
   <i type="logical" name="LCHIMAG"> F  </i>
   <i type="logical" name="LGAUGE"> T  </i>
   <i type="int" name="MAGATOM">     0</i>
   <v name="MAGDIPOL">      0.00000000      0.00000000      0.00000000</v>
   <v name="AVECCONST">      0.00000000      0.00000000      0.00000000</v>
  </separator>
  <separator name="response functions" >
   <i type="logical" name="LADDER"> F  </i>
   <i type="logical" name="LFXC"> F  </i>
   <i type="logical" name="LHARTREE"> T  </i>
   <i type="int" name="IBSE">     0</i>
   <i type="logical" name="LTCTE"> F  </i>
   <i type="logical" name="LTETE"> F  </i>
   <i type="logical" name="LTRIPLET"> F  </i>
   <i type="logical" name="LFXCEPS"> F  </i>
   <i type="logical" name="LFXHEG"> F  </i>
   <i type="logical" name="L2ORDER"> F  </i>
   <i type="logical" name="LUSEW"> F  </i>
   <i name="ENCUTGW">     -2.00000000</i>
   <i name="ENCUTGWSOFT">     -2.00000000</i>
   <i name="ENCUTLF">     -1.00000000</i>
   <i type="int" name="LMAXMP2">    -1</i>
   <i name="SCISSOR">      0.00000000</i>
   <i type="int" name="NOMEGA">     0</i>
   <i type="int" name="NOMEGAR">     0</i>
   <i type="int" name="NBANDSGW">    -1</i>
   <i type="int" name="NBANDSO">    -1</i>
   <i type="int" name="NBANDSV">    -1</i>
   <i type="int" name="NELM">   300</i>
   <i type="int" name="DIM">     3</i>
   <i type="int" name="ANTIRES">     0</i>
   <i name="OMEGAMAX">    -30.00000000</i>
   <i name="OMEGAMIN">    -30.00000000</i>
   <i name="OMEGATL">   -200.00000000</i>
   <i type="int" name="OMEGAGRID">     0</i>
   <i name="CSHIFT">     -0.10000000</i>
   <i type="logical" name="SELFENERGY"> F  </i>
   <i type="logical" name="LSPECTRAL"> F  </i>
   <i type="logical" name="ODDONLYGW"> F  </i>
   <i type="logical" name="EVENONLYGW"> F  </i>
   <i type="int" name="NKREDLFX">     1</i>
   <i type="int" name="NKREDLFY">     1</i>
   <i type="int" name="NKREDLFZ">     1</i>
   <i type="int" name="MAXMEM">  1800</i>
   <i type="int" name="TELESCOPE">     0</i>
   <i type="int" name="TAUPAR">     1</i>
  </separator>
  <separator name="External order field" >
   <i name="OFIELD_KAPPA">      0.00000000</i>
   <v name="OFIELD_K">      0.00000000      0.00000000      0.00000000</v>
   <i name="OFIELD_Q6_NEAR">      0.00000000</i>
   <i name="OFIELD_Q6_FAR">      0.00000000</i>
   <i name="OFIELD_A">      0.00000000</i>
  </separator>
 </parameters>
 <atominfo>
  <atoms>      52 </atoms>
  <types>       3 </types>
  <array name="atoms" >
   <dimension dim="1">ion</dimension>
   <field type="string">element</field>
   <field type="int">atomtype</field>
   <set>
    <rc><c>Fe</c><c>   1</c></rc>
    <rc><c>Fe</c><c>   1</c></rc>
    <rc><c>Fe</c><c>   1</c></rc>
    <rc><c>Fe</c><c>   1</c></rc>
    <rc><c>Fe</c><c>   1</c></rc>
    <rc><c>Fe</c><c>   1</c></rc>
    <rc><c>Fe</c><c>   1</c></rc>
    <rc><c>Fe</c><c>   1</c></rc>
    <rc><c>Fe</c><c>   1</c></rc>
    <rc><c>Fe</c><c>   1</c></rc>
    <rc><c>Fe</c><c>   1</c></rc>
    <rc><c>Fe</c><c>   1</c></rc>
    <rc><c>Fe</c><c>   1</c></rc>
    <rc><c>Fe</c><c>   1</c></rc>
    <rc><c>Fe</c><c>   1</c></rc>
    <rc><c>Fe</c><c>   1</c></rc>
    <rc><c>O </c><c>   2</c></rc>
    <rc><c>O </c><c>   2</c></rc>
    <rc><c>O </c><c>   2</c></rc>
    <rc><c>O </c><c>   2</c></rc>
    <rc><c>F </c><c>   3</c></rc>
    <rc><c>F </c><c>   3</c></rc>
    <rc><c>F </c><c>   3</c></rc>
    <rc><c>F </c><c>   3</c></rc>
    <rc><c>F </c><c>   3</c></rc>
    <rc><c>F </c><c>   3</c></rc>
    <rc><c>F </c><c>   3</c></rc>
    <rc><c>F </c><c>   3</c></rc>
    <rc><c>F </c><c>   3</c></rc>
    <rc><c>F </c><c>   3</c></rc>
    <rc><c>F </c><c>   3</c></rc>
    <rc><c>F </c><c>   3</c></rc>
    <rc><c>F </c><c>   3</c></rc>
    <rc><c>F </c><c>   3</c></rc>
    <rc><c>F </c><c>   3</c></rc>
    <rc><c>F </c><c>   3</c></rc>
    <rc><c>F </c><c>   3</c></rc>
    <rc><c>F </c><c>   3</c></rc>
    <rc><c>F </c><c>   3</c></rc>
    <rc><c>F </c><c>   3</c></rc>
    <rc><c>F </c><c>   3</c></rc>
    <rc><c>F </c><c>   3</c></rc>
    <rc><c>F </c><c>   3</c></rc>
    <rc><c>F </c><c>   3</c></rc>
    <rc><c>F </c><c>   3</c></rc>
    <rc><c>F </c><c>   3</c></rc>
    <rc><c>F </c><c>   3</c></rc>
    <rc><c>F </c><c>   3</c></rc>
    <rc><c>F </c><c>   3</c></rc>
    <rc><c>F </c><c>   3</c></rc>
    <rc><c>F </c><c>   3</c></rc>
    <rc><c>F </c><c>   3</c></rc>
   </set>
  </array>
  <array name="atomtypes" >
   <dimension dim="1">type</dimension>
   <field type="int">atomspertype</field>
   <field type="string">element</field>
   <field>mass</field>
   <field>valence</field>
   <field type="string">pseudopotential</field>
   <set>
    <rc><c>  16</c><c>Fe</c><c>     55.84700000</c><c>      8.00000000</c><c>  PAW_PBE Fe 06Sep2000                  </c></rc>
    <rc><c>   4</c><c>O </c><c>     16.00000000</c><c>      6.00000000</c><c>  PAW_PBE O 08Apr2002                   </c></rc>
    <rc><c>  32</c><c>F </c><c>     18.99800000</c><c>      7.00000000</c><c>  PAW_PBE F 08Apr2002                   </c></rc>
   </set>
  </array>
 </atominfo>
 <structure name="initialpos" >
  <crystal>
   <varray name="basis" >
    <v>       9.40119100       0.05177400      -0.08412900 </v>
    <v>       0.00000000       5.35946700       0.04849500 </v>
    <v>       0.00000000       0.00000000      14.95565100 </v>
   </varray>
   <i name="volume">    753.54605297 </i>
   <varray name="rec_basis" >
    <v>       0.10636950       0.00000000       0.00000000 </v>
    <v>      -0.00102756       0.18658572       0.00000000 </v>
    <v>       0.00060169      -0.00060502       0.06686436 </v>
   </varray>
  </crystal>
  <varray name="positions" >
   <v>       0.16411200       0.48397600       0.17995900 </v>
   <v>       0.16411200       0.52481400       0.67995900 </v>
   <v>       0.66411200       0.98397600       0.17995900 </v>
   <v>       0.66411200       0.02439400       0.67995900 </v>
   <v>       0.17533200       0.47285200       0.97303200 </v>
   <v>       0.17533200       0.52802200       0.47303200 </v>
   <v>       0.67533200       0.97285200       0.97303200 </v>
   <v>       0.67533200       0.02714800       0.47303200 </v>
   <v>       0.33162900       0.02941400       0.82240100 </v>
   <v>       0.33162900       0.97058600       0.32240100 </v>
   <v>       0.83162900       0.52941400       0.82240100 </v>
   <v>       0.83162900       0.47058600       0.32240100 </v>
   <v>       0.33361900       0.00406500       0.51267100 </v>
   <v>       0.33361900       0.99311700       0.01711500 </v>
   <v>       0.83361900       0.50432000       0.51711500 </v>
   <v>       0.83006700       0.49568000       0.01711500 </v>
   <v>       0.30926400       0.26740800       0.92544800 </v>
   <v>       0.30926400       0.73259200       0.42544800 </v>
   <v>       0.80926400       0.76740800       0.92544800 </v>
   <v>       0.80926400       0.23259200       0.42544800 </v>
   <v>       0.00386100       0.36884200       0.24394900 </v>
   <v>       0.00386100       0.63115800       0.74394900 </v>
   <v>       0.50386100       0.86884200       0.24394900 </v>
   <v>       0.50386100       0.13115800       0.74394900 </v>
   <v>       0.02591400       0.39537700       0.57915900 </v>
   <v>       0.02591400       0.60462300       0.07915900 </v>
   <v>       0.52591400       0.89537700       0.57915900 </v>
   <v>       0.52591400       0.10462300       0.07915900 </v>
   <v>       0.17611800       0.21417000       0.08350500 </v>
   <v>       0.17611800       0.78583000       0.57414400 </v>
   <v>       0.67611800       0.71417000       0.08350500 </v>
   <v>       0.67611800       0.29511000       0.58350500 </v>
   <v>       0.19124200       0.20344500       0.73945400 </v>
   <v>       0.18147400       0.79655500       0.23945400 </v>
   <v>       0.68147400       0.70344500       0.74893500 </v>
   <v>       0.68147400       0.29655500       0.23945400 </v>
   <v>       0.18900300       0.20907800       0.42366300 </v>
   <v>       0.18900300       0.79814000       0.92366300 </v>
   <v>       0.68900300       0.70186000       0.42366300 </v>
   <v>       0.68900300       0.29814000       0.92017200 </v>
   <v>       0.29347700       0.34686800       0.57827500 </v>
   <v>       0.29347700       0.65313200       0.07827500 </v>
   <v>       0.79347700       0.84893200       0.57827500 </v>
   <v>       0.79347700       0.15313200       0.07827500 </v>
   <v>       0.30310600       0.30561100       0.24801900 </v>
   <v>       0.30310600       0.69438900       0.74801900 </v>
   <v>       0.80310600       0.80561100       0.24801900 </v>
   <v>       0.80310600       0.19438900       0.74801900 </v>
   <v>       0.49071400       0.13464800       0.42295500 </v>
   <v>       0.49071400       0.86535200       0.92295500 </v>
   <v>       0.99071400       0.63464800       0.42295500 </v>
   <v>       0.98511200       0.36535200       0.92295500 </v>
  </varray>
 </structure>
 <calculation>
  <scstep>
   <time name="diag">    0.75    1.08</time>
   <time name="diis">    1.06    1.62</time>
   <time name="orth">    0.22    0.33</time>
   <time name="total">    2.31    3.48</time>
   <energy>
    <i name="alphaZ">   1136.56246079 </i>
    <i name="ewald"> -19699.59495153 </i>
    <i name="hartreedc"> -12189.10409550 </i>
    <i name="XCdc">   1336.24141693 </i>
    <i name="pawpsdc">  27518.38149996 </i>
    <i name="pawaedc"> -27812.06485035 </i>
    <i name="eentropy">     -0.09860578 </i>
    <i name="bandstr">   2131.57362611 </i>
    <i name="atom">  32340.34786160 </i>
    <i name="e_fr_energy">   4762.24436222 </i>
    <i name="e_wo_entrp">   4762.34296800 </i>
    <i name="e_0_energy">   4762.27723082 </i>
   </energy>
  </scstep>
  <scstep>
   <time name="diag">    0.57    0.72</time>
   <time name="diis">    1.23    1.56</time>
   <time name="orth">    0.28    0.37</time>
   <time name="total">    2.08    2.65</time>
   <energy>
    <i name="e_fr_energy">   1579.33189506 </i>
    <i name="e_wo_entrp">   1579.37044031 </i>
    <i name="e_0_energy">   1579.34474348 </i>
   </energy>
  </scstep>
  <scstep>
   <time name="diag">    0.53    0.90</time>
   <time name="diis">    1.16    1.57</time>
   <time name="orth">    0.13    0.16</time>
   <time name="total">    1.82    2.63</time>
   <energy>
    <i name="e_fr_energy">    547.94021714 </i>
    <i name="e_wo_entrp">    547.53048320 </i>
    <i name="e_0_energy">    547.80363916 </i>
   </energy>
  </scstep>
  <scstep>
   <time name="diag">    0.71    0.99</time>
   <time name="diis">    1.04    1.60</time>
   <time name="orth">    0.37    0.60</time>
   <time name="total">    2.12    3.20</time>
   <energy>
    <i name="e_fr_energy">    121.99855933 </i>
    <i name="e_wo_entrp">    121.97160854 </i>
    <i name="e_0_energy">    121.98957573 </i>
   </energy>
  </scstep>
  <scstep>
   <time name="diag">    0.53    0.69</time>
   <time name="diis">    1.18    1.65</time>
   <time name="orth">    0.15    0.15</time>
   <time name="total">    1.85    2.48</time>
   <energy>
    <i name="e_fr_energy">   -127.34817700 </i>
    <i name="e_wo_entrp">   -127.33661478 </i>
    <i name="e_0_energy">   -127.34432293 </i>
   </energy>
  </scstep>
  <scstep>
   <time name="diag">    0.63    0.79</time>
   <time name="diis">    1.04    1.48</time>
   <time name="orth">    0.18    0.28</time>
   <time name="total">    1.85    2.55</time>
   <energy>
    <i name="e_fr_energy">   -240.92415644 </i>
    <i name="e_wo_entrp">   -240.93975558 </i>
    <i name="e_0_energy">   -240.92935615 </i>
   </energy>
  </scstep>
  <scstep>
   <time name="diag">    0.55    0.89</time>
   <time name="diis">    1.11    1.50</time>
   <time name="orth">    0.11    0.19</time>
   <time name="total">    1.77    2.59</time>
   <energy>
    <i name="e_fr_energy">   -295.81627640 </i>
    <i name="e_wo_entrp">   -295.86757191 </i>
    <i name="e_0_energy">   -295.83337490 </i>
   </energy>
  </scstep>
  <scstep>
   <time name="diag">    0.58    0.78</time>
   <time name="diis">    1.12    1.59</time>
   <time name="orth">    0.14    0.14</time>
   <time name="total">    1.84    2.50</time>
   <energy>
    <i name="e_fr_energy">   -317.01331502 </i>
    <i name="e_wo_entrp">   -317.08126319 </i>
    <i name="e_0_energy">   -317.03596441 </i>
   </energy>
  </scstep>
  <scstep>
   <time name="diag">    0.53    0.68</time>
   <time name="diis">    3.53    4.97</time>
   <time name="orth">    0.39    0.50</time>
   <time name="total">    4.45    6.16</time>
   <energy>
    <i name="e_fr_energy">   -337.02298898 </i>
    <i name="e_wo_entrp">   -337.07228887 </i>
    <i name="e_0_energy">   -337.03942228 </i>
   </energy>
  </scstep>
  <scstep>
   <time name="diag">    0.65    0.93</time>
   <time name="diis">    3.37    4.97</time>
   <time name="orth">    0.18    0.22</time>
   <time name="total">    4.20    6.12</time>
   <energy>
    <i name="e_fr_energy">   -337.47126065 </i>
    <i name="e_wo_entrp">   -337.50329980 </i>
    <i name="e_0_energy">   -337.48194037 </i>
   </energy>
  </scstep>
  <scstep>
   <time name="diag">    0.79    0.87</time>
   <time name="diis">    3.05    4.59</time>
   <time name="orth">    0.20    0.23</time>
   <time name="total">    4.05    5.70</time>
   <energy>
    <i name="e_fr_energy">   -337.81708419 </i>
    <i name="e_wo_entrp">   -337.83398868 </i>
    <i name="e_0_energy">   -337.82271902 </i>
   </energy>
  </scstep>
  <scstep>
   <time name="diag">    0.43    0.62</time>
   <time name="diis">    2.95    4.20</time>
   <time name="orth">    0.31    0.47</time>
   <time name="total">    3.97    5.65</time>
   <energy>
    <i name="e_fr_energy">   -337.97074623 </i>
    <i name="e_wo_entrp">   -337.98046010 </i>
    <i name="e_0_energy">   -337.97398419 </i>
   </energy>
  </scstep>
  <scstep>
   <time name="diag">    0.68    0.87</time>
   <time name="diis">    2.25    3.45</time>
   <time name="orth">    0.21    0.35</time>
   <time name="total">    3.64    5.34</time>
   <energy>
    <i name="e_fr_energy">   -328.12048519 </i>
    <i name="e_wo_entrp">   -327.98432818 </i>
    <i name="e_0_energy">   -328.07509952 </i>
   </energy>
  </scstep>
  <scstep>
   <time name="diag">    0.64    0.88</time>
   <time name="diis">    2.21    3.30</time>
   <time name="orth">    0.32    0.38</time>
   <time name="total">    3.69    5.27</time>
   <energy>
    <i name="e_fr_energy">   -391.21195038 </i>
    <i name="e_wo_entrp">   -391.00398212 </i>
    <i name="e_0_energy">   -391.14262763 </i>
   </energy>
  </scstep>
  <scstep>
   <time name="diag">    0.58    0.77</time>
   <time name="diis">    2.41    3.53</time>
   <time name="orth">    0.71    0.72</time>
   <time name="total">    3.98    5.38</time>
   <energy>
    <i name="e_fr_energy">   -321.93358321 </i>
    <i name="e_wo_entrp">   -321.91935990 </i>
    <i name="e_0_energy">   -321.92884211 </i>
   </energy>
  </scstep>
  <scstep>
   <time name="diag">    0.44    0.48</time>
   <time name="diis">    2.15    3.43</time>
   <time name="orth">    0.12    0.16</time>
   <time name="total">    3.01    4.43</time>
   <energy>
    <i name="e_fr_energy">   -306.42231941 </i>
    <i name="e_wo_entrp">   -306.45515781 </i>
    <i name="e_0_energy">   -306.43326555 </i>
   </energy>
  </scstep>
  <scstep>
   <time name="diag">    0.67    0.91</time>
   <time name="diis">    2.30    3.21</time>
   <time name="orth">    0.10    0.10</time>
   <time name="total">    3.41    4.71</time>
   <energy>
    <i name="e_fr_energy">   -402.45570386 </i>
    <i name="e_wo_entrp">   -402.38744366 </i>
    <i name="e_0_energy">   -402.43295046 </i>
   </energy>
  </scstep>
  <scstep>
   <time name="diag">    0.59    0.84</time>
   <time name="diis">    2.29    3.35</time>
   <time name="orth">    0.14    0.18</time>
   <time name="total">    3.30    4.78</time>
   <energy>
    <i name="e_fr_energy">   -391.96136890 </i>
    <i name="e_wo_entrp">   -391.88236310 </i>
    <i name="e_0_energy">   -391.93503364 </i>
   </energy>
  </scstep>
  <scstep>
   <time name="diag">    0.43    0.58</time>
   <time name="diis">    2.32    3.08</time>
   <time name="orth">    0.13    0.22</time>
   <time name="total">    3.22    4.45</time>
   <energy>
    <i name="e_fr_energy">   -348.59164671 </i>
    <i name="e_wo_entrp">   -348.54679700 </i>
    <i name="e_0_energy">   -348.57669681 </i>
   </energy>
  </scstep>
  <scstep>
   <time name="diag">    0.53    0.72</time>
   <time name="diis">    2.15    3.24</time>
   <time name="orth">    0.11    0.14</time>
   <time name="total">    3.11    4.59</time>
   <energy>
    <i name="e_fr_energy">   -333.55331921 </i>
    <i name="e_wo_entrp">   -333.61467202 </i>
    <i name="e_0_energy">   -333.57377015 </i>
   </energy>
  </scstep>
  <scstep>
   <time name="diag">    0.39    0.52</time>
   <time name="diis">    2.57    3.34</time>
   <time name="orth">    0.18    0.29</time>
   <time name="total">    3.49    4.65</time>
   <energy>
    <i name="e_fr_energy">   -331.22236577 </i>
    <i name="e_wo_entrp">   -331.28168430 </i>
    <i name="e_0_energy">   -331.24213862 </i>
   </energy>
  </scstep>
  <scstep>
   <time name="diag">    0.59    0.88</time>
   <time name="diis">    2.25    3.18</time>
   <time name="orth">    0.16    0.27</time>
   <time name="total">    3.52    5.06</time>
   <energy>
    <i name="e_fr_energy">   -325.09670743 </i>
    <i name="e_wo_entrp">   -324.97448068 </i>
    <i name="e_0_energy">   -325.05596518 </i>
   </energy>
  </scstep>
  <scstep>
   <time name="diag">    0.43    0.64</time>
   <time name="diis">    2.25    3.35</time>
   <time name="orth">    0.14    0.17</time>
   <time name="total">    3.26    4.82</time>
   <energy>
    <i name="e_fr_energy">   -321.51441903 </i>
    <i name="e_wo_entrp">   -321.53553994 </i>
    <i name="e_0_energy">   -321.52145933 </i>
   </energy>
  </scstep>
  <scstep>
   <time name="diag">    0.79    1.12</time>
   <time name="diis">    2.32    3.18</time>
   <time name="orth">    0.14    0.20</time>
   <time name="total">    3.73    5.16</time>
   <energy>
    <i name="e_fr_energy">   -307.04062210 </i>
    <i name="e_wo_entrp">   -307.00895592 </i>
    <i name="e_0_energy">   -307.03006670 </i>
   </energy>
  </scstep>
  <scstep>
   <time name="diag">    0.75    1.19</time>
   <time name="diis">    2.31    3.46</time>
   <time name="orth">    0.08    0.16</time>
   <time name="total">    3.40    5.28</time>
   <energy>
    <i name="e_fr_energy">   -291.05475701 </i>
    <i name="e_wo_entrp">   -291.05528121 </i>
    <i name="e_0_energy">   -291.05493174 </i>
   </energy>
  </scstep>
  <scstep>
   <time name="diag">    0.69    1.02</time>
   <time name="diis">    2.40    3.36</time>
   <time name="orth">    0.19    0.27</time>
   <time name="total">    3.95    5.72</time>
   <energy>
    <i name="e_fr_energy">   -288.71014477 </i>
    <i name="e_wo_entrp">   -288.68659030 </i>
    <i name="e_0_energy">   -288.70229328 </i>
   </energy>
  </scstep>
  <scstep>
   <time name="diag">    0.41    0.66</time>
   <time name="diis">    2.47    3.40</time>
   <time name="orth">    0.18    0.30</time>
   <time name="total">    3.62    5.12</time>
   <energy>
    <i name="e_fr_energy">   -282.88089895 </i>
    <i name="e_wo_entrp">   -283.00638879 </i>
    <i name="e_0_energy">   -282.92272890 </i>
   </energy>
  </scstep>
  <scstep>
   <time name="diag">    0.68    0.83</time>
   <time name="diis">    2.05    2.94</time>
   <time name="orth">    0.34    0.46</time>
   <time name="total">    3.62    5.02</time>
   <energy>
    <i name="e_fr_energy">   -279.77272743 </i>
    <i name="e_wo_entrp">   -279.73083361 </i>
    <i name="e_0_energy">   -279.75876282 </i>
   </energy>
  </scstep>
  <scstep>
   <time name="diag">    0.51    0.77</time>
   <time name="diis">    2.48    3.42</time>
   <time name="orth">    0.12    0.18</time>
   <time name="total">    3.44    4.79</time>
   <energy>
    <i name="e_fr_energy">   -280.26898149 </i>
    <i name="e_wo_entrp">   -280.26843857 </i>
    <i name="e_0_energy">   -280.26880052 </i>
   </energy>
  </scstep>
  <scstep>
   <time name="diag">    0.58    0.72</time>
   <time name="diis">    2.23    3.10</time>
   <time name="orth">    0.22    0.32</time>
   <time name="total">    3.38    4.63</time>
   <energy>
    <i name="e_fr_energy">   -278.83765333 </i>
    <i name="e_wo_entrp">   -278.74945846 </i>
    <i name="e_0_energy">   -278.80825504 </i>
   </energy>
  </scstep>
  <scstep>
   <time name="diag">    0.46    0.63</time>
   <time name="diis">    2.11    3.23</time>
   <time name="orth">    0.14    0.23</time>
   <time name="total">    3.23    4.78</time>
   <energy>
    <i name="e_fr_energy">   -278.11407992 </i>
    <i name="e_wo_entrp">   -278.10123492 </i>
    <i name="e_0_energy">   -278.10979825 </i>
   </energy>
  </scstep>
  <scstep>
   <time name="diag">    0.40    0.64</time>
   <time name="diis">    2.34    3.42</time>
   <time name="orth">    0.29    0.33</time>
   <time name="total">    3.74    5.57</time>
   <energy>
    <i name="e_fr_energy">   -277.84356795 </i>
    <i name="e_wo_entrp">   -277.78463812 </i>
    <i name="e_0_energy">   -277.82392467 </i>
   </energy>
  </scstep>
  <scstep>
   <time name="diag">    0.53    0.77</time>
   <time name="diis">    2.49    3.20</time>
   <time name="orth">    0.22    0.35</time>
   <time name="total">    3.88    5.19</time>
   <energy>
    <i name="e_fr_energy">   -277.84697773 </i>
    <i name="e_wo_entrp">   -277.80405045 </i>
    <i name="e_0_energy">   -277.83266863 </i>
   </energy>
  </scstep>
  <scstep>
   <time name="diag">    0.49    0.79</time>
   <time name="diis">    2.31    3.24</time>
   <time name="orth">    0.16    0.27</time>
   <time name="total">    3.50    5.09</time>
   <energy>
    <i name="e_fr_energy">   -278.58511845 </i>
    <i name="e_wo_entrp">   -278.56980033 </i>
    <i name="e_0_energy">   -278.58001241 </i>
   </energy>
  </scstep>
  <scstep>
   <time name="diag">    0.50    0.93</time>
   <time name="diis">    2.47    3.42</time>
   <time name="orth">    0.17    0.28</time>
   <time name="total">    3.58    5.24</time>
   <energy>
    <i name="e_fr_energy">   -278.52406052 </i>
    <i name="e_wo_entrp">   -278.51984524 </i>
    <i name="e_0_energy">   -278.52265543 </i>
   </energy>
  </scstep>
  <scstep>
   <time name="diag">    0.59    0.87</time>
   <time name="diis">    2.25    3.50</time>
   <time name="orth">    0.20    0.23</time>
   <time name="total">    3.44    5.26</time>
   <energy>
    <i name="e_fr_energy">   -278.16419827 </i>
    <i name="e_wo_entrp">   -278.06721428 </i>
    <i name="e_0_energy">   -278.13187027 </i>
   </energy>
  </scstep>
  <scstep>
   <time name="diag">    0.40    0.63</time>
   <time name="diis">    2.09    3.13</time>
   <time name="orth">    0.15    0.29</time>
   <time name="total">    3.02    4.67</time>
   <energy>
    <i name="e_fr_energy">   -277.63159071 </i>
    <i name="e_wo_entrp">   -277.63489095 </i>
    <i name="e_0_energy">   -277.63269079 </i>
   </energy>
  </scstep>
  <scstep>
   <time name="diag">    0.70    1.07</time>
   <time name="diis">    2.36    3.48</time>
   <time name="orth">    0.24    0.37</time>
   <time name="total">    3.78    5.59</time>
   <energy>
    <i name="e_fr_energy">   -277.37826414 </i>
    <i name="e_wo_entrp">   -277.40863234 </i>
    <i name="e_0_energy">   -277.38838687 </i>
   </energy>
  </scstep>
  <scstep>
   <time name="diag">    0.65    0.88</time>
   <time name="diis">    2.42    3.80</time>
   <time name="orth">    0.15    0.31</time>
   <time name="total">    3.89    5.93</time>
   <energy>
    <i name="e_fr_energy">   -277.29873026 </i>
    <i name="e_wo_entrp">   -277.33506425 </i>
    <i name="e_0_energy">   -277.31084159 </i>
   </energy>
  </scstep>
  <scstep>
   <time name="diag">    0.80    0.99</time>
   <time name="diis">    2.36    3.31</time>
   <time name="orth">    0.36    0.49</time>
   <time name="total">    4.09    5.55</time>
   <energy>
    <i name="e_fr_energy">   -277.36796637 </i>
    <i name="e_wo_entrp">   -277.43690787 </i>
    <i name="e_0_energy">   -277.39094687 </i>
   </energy>
  </scstep>
  <scstep>
   <time name="diag">    0.82    1.28</time>
   <time name="diis">    2.07    3.07</time>
   <time name="orth">    0.24    0.44</time>
   <time name="total">    3.50    5.39</time>
   <energy>
    <i name="e_fr_energy">   -277.27100743 </i>
    <i name="e_wo_entrp">   -277.31994675 </i>
    <i name="e_0_energy">   -277.28732053 </i>
   </energy>
  </scstep>
  <scstep>
   <time name="diag">    0.90    1.53</time>
   <time name="diis">    2.25    3.33</time>
   <time name="orth">    0.16    0.21</time>
   <time name="total">    3.72    5.57</time>
   <energy>
    <i name="e_fr_energy">   -277.26124101 </i>
    <i name="e_wo_entrp">   -277.30947625 </i>
    <i name="e_0_energy">   -277.27731942 </i>
   </energy>
  </scstep>
  <scstep>
   <time name="diag">    0.77    0.99</time>
   <time name="diis">    2.26    3.28</time>
   <time name="orth">    0.14    0.23</time>
   <time name="total">    3.67    5.20</time>
   <energy>
    <i name="e_fr_energy">   -277.26925087 </i>
    <i name="e_wo_entrp">   -277.31718276 </i>
    <i name="e_0_energy">   -277.28522817 </i>
   </energy>
  </scstep>
  <scstep>
   <time name="diag">    0.65    1.11</time>
   <time name="diis">    2.31    3.08</time>
   <time name="orth">    0.22    0.32</time>
   <time name="total">    3.76    5.42</time>
   <energy>
    <i name="e_fr_energy">   -277.26514110 </i>
    <i name="e_wo_entrp">   -277.29819809 </i>
    <i name="e_0_energy">   -277.27616010 </i>
   </energy>
  </scstep>
  <scstep>
   <time name="diag">    0.43    0.72</time>
   <time name="diis">    2.09    2.72</time>
   <time name="orth">    0.07    0.11</time>
   <time name="total">    3.06    4.26</time>
   <energy>
    <i name="e_fr_energy">   -277.25517778 </i>
    <i name="e_wo_entrp">   -277.29653601 </i>
    <i name="e_0_energy">   -277.26896386 </i>
   </energy>
  </scstep>
  <scstep>
   <time name="diag">    0.45    0.62</time>
   <time name="diis">    1.86    3.01</time>
   <time name="orth">    0.15    0.15</time>
   <time name="total">    2.82    4.23</time>
   <energy>
    <i name="e_fr_energy">   -277.25380185 </i>
    <i name="e_wo_entrp">   -277.29363405 </i>
    <i name="e_0_energy">   -277.26707925 </i>
   </energy>
  </scstep>
  <scstep>
   <time name="diag">    0.49    0.84</time>
   <time name="diis">    1.51    2.13</time>
   <time name="orth">    0.15    0.18</time>
   <time name="total">    2.48    3.59</time>
   <energy>
    <i name="e_fr_energy">   -277.25159970 </i>
    <i name="e_wo_entrp">   -277.29500819 </i>
    <i name="e_0_energy">   -277.26606920 </i>
   </energy>
  </scstep>
  <scstep>
   <time name="diag">    0.65    0.87</time>
   <time name="diis">    1.93    2.14</time>
   <time name="orth">    0.12    0.13</time>
   <time name="total">    3.50    4.36</time>
   <energy>
    <i name="e_fr_energy">   -277.25092224 </i>
    <i name="e_wo_entrp">   -277.29530110 </i>
    <i name="e_0_energy">   -277.26571519 </i>
   </energy>
  </scstep>
  <scstep>
   <time name="diag">    0.50    0.74</time>
   <time name="diis">    1.25    1.63</time>
   <time name="orth">    0.17    0.17</time>
   <time name="total">    2.29    2.99</time>
   <energy>
    <i name="e_fr_energy">   -277.25040749 </i>
    <i name="e_wo_entrp">   -277.29567644 </i>
    <i name="e_0_energy">   -277.26549714 </i>
   </energy>
  </scstep>
  <scstep>
   <time name="diag">    0.75    1.07</time>
   <time name="diis">    1.12    1.71</time>
   <time name="orth">    0.25    0.35</time>
   <time name="total">    2.48    3.66</time>
   <energy>
    <i name="e_fr_energy">   -277.25018592 </i>
    <i name="e_wo_entrp">   -277.29690640 </i>
    <i name="e_0_energy">   -277.26575941 </i>
   </energy>
  </scstep>
  <scstep>
   <time name="diag">    0.32    0.48</time>
   <time name="diis">    1.49    1.69</time>
   <time name="orth">    0.12    0.12</time>
   <time name="total">    2.18    2.69</time>
   <energy>
    <i name="alphaZ">   1136.56246079 </i>
    <i name="ewald"> -19699.59495153 </i>
    <i name="hartreedc"> -12337.24910160 </i>
    <i name="XCdc">   1356.55597767 </i>
    <i name="pawpsdc">  32570.35653879 </i>
    <i name="pawaedc"> -32874.76727120 </i>
    <i name="eentropy">      0.04727454 </i>
    <i name="bandstr">  -2769.50887602 </i>
    <i name="atom">  32340.34786160 </i>
    <i name="e_fr_energy">   -277.25008696 </i>
    <i name="e_wo_entrp">   -277.29736149 </i>
    <i name="e_0_energy">   -277.26584514 </i>
   </energy>
  </scstep>
  <structure>
   <crystal>
    <varray name="basis" >
     <v>       9.40119100       0.05177400      -0.08412900 </v>
     <v>       0.00000000       5.35946700       0.04849500 </v>
     <v>       0.00000000       0.00000000      14.95565100 </v>
    </varray>
    <i name="volume">    753.54605297 </i>
    <varray name="rec_basis" >
     <v>       0.10636950       0.00000000       0.00000000 </v>
     <v>      -0.00102756       0.18658572       0.00000000 </v>
     <v>       0.00060169      -0.00060502       0.06686436 </v>
    </varray>
   </crystal>
   <varray name="positions" >
    <v>       0.16411200       0.48397600       0.17995900 </v>
    <v>       0.16411200       0.52481400       0.67995900 </v>
    <v>       0.66411200       0.98397600       0.17995900 </v>
    <v>       0.66411200       0.02439400       0.67995900 </v>
    <v>       0.17533200       0.47285200       0.97303200 </v>
    <v>       0.17533200       0.52802200       0.47303200 </v>
    <v>       0.67533200       0.97285200       0.97303200 </v>
    <v>       0.67533200       0.02714800       0.47303200 </v>
    <v>       0.33162900       0.02941400       0.82240100 </v>
    <v>       0.33162900       0.97058600       0.32240100 </v>
    <v>       0.83162900       0.52941400       0.82240100 </v>
    <v>       0.83162900       0.47058600       0.32240100 </v>
    <v>       0.33361900       0.00406500       0.51267100 </v>
    <v>       0.33361900       0.99311700       0.01711500 </v>
    <v>       0.83361900       0.50432000       0.51711500 </v>
    <v>       0.83006700       0.49568000       0.01711500 </v>
    <v>       0.30926400       0.26740800       0.92544800 </v>
    <v>       0.30926400       0.73259200       0.42544800 </v>
    <v>       0.80926400       0.76740800       0.92544800 </v>
    <v>       0.80926400       0.23259200       0.42544800 </v>
    <v>       0.00386100       0.36884200       0.24394900 </v>
    <v>       0.00386100       0.63115800       0.74394900 </v>
    <v>       0.50386100       0.86884200       0.24394900 </v>
    <v>       0.50386100       0.13115800       0.74394900 </v>
    <v>       0.02591400       0.39537700       0.57915900 </v>
    <v>       0.02591400       0.60462300       0.07915900 </v>
    <v>       0.52591400       0.89537700       0.57915900 </v>
    <v>       0.52591400       0.10462300       0.07915900 </v>
    <v>       0.17611800       0.21417000       0.08350500 </v>
    <v>       0.17611800       0.78583000       0.57414400 </v>
    <v>       0.67611800       0.71417000       0.08350500 </v>
    <v>       0.67611800       0.29511000       0.58350500 </v>
    <v>       0.19124200       0.20344500       0.73945400 </v>
    <v>       0.18147400       0.79655500       0.23945400 </v>
    <v>       0.68147400       0.70344500       0.74893500 </v>
    <v>       0.68147400       0.29655500       0.23945400 </v>
    <v>       0.18900300       0.20907800       0.42366300 </v>
    <v>       0.18900300       0.79814000       0.92366300 </v>
    <v>       0.68900300       0.70186000       0.42366300 </v>
    <v>       0.68900300       0.29814000       0.92017200 </v>
    <v>       0.29347700       0.34686800       0.57827500 </v>
    <v>       0.29347700       0.65313200       0.07827500 </v>
    <v>       0.79347700       0.84893200       0.57827500 </v>
    <v>       0.79347700       0.15313200       0.07827500 </v>
    <v>       0.30310600       0.30561100       0.24801900 </v>
    <v>       0.30310600       0.69438900       0.74801900 </v>
    <v>       0.80310600       0.80561100       0.24801900 </v>
    <v>       0.80310600       0.19438900       0.74801900 </v>
    <v>       0.49071400       0.13464800       0.42295500 </v>
    <v>       0.49071400       0.86535200       0.92295500 </v>
    <v>       0.99071400       0.63464800       0.42295500 </v>
    <v>       0.98511200       0.36535200       0.92295500 </v>
   </varray>
  </structure>
  <varray name="forces" >
   <v>       0.03074696       0.24737296      -0.46188027 </v>
   <v>       0.20409980      -0.72025881      -0.40541338 </v>
   <v>       0.06673677       0.26622865      -0.40048725 </v>
   <v>       0.17895256      -0.59680061      -0.13568862 </v>
   <v>       0.16633404      -0.84819104       1.23156063 </v>
   <v>       0.38629003       0.79723990       1.54750000 </v>
   <v>       0.29868952      -0.65662146       1.07219681 </v>
   <v>       0.38284137       0.71492842       1.29640097 </v>
   <v>      -0.35555723       1.12483963      -0.05810840 </v>
   <v>      -0.45827695      -1.10358293      -0.15281572 </v>
   <v>      -0.49713797       0.97370939       0.22538328 </v>
   <v>      -0.46458451      -1.10371976      -0.00310209 </v>
   <v>       0.26022765      -1.04431879      -1.18432269 </v>
   <v>       0.26315017       1.32838204      -1.37839268 </v>
   <v>       0.21856420      -1.16570428      -1.36734612 </v>
   <v>       0.44247392       1.28001869      -1.42603253 </v>
   <v>      -0.36118874      -1.72534817       0.21251916 </v>
   <v>      -0.18942910       1.76063145      -0.09612012 </v>
   <v>      -0.38901670      -1.66015065       0.31762886 </v>
   <v>      -0.35794061       1.68941466       0.12570054 </v>
   <v>      -0.33270189       0.22374851       0.36803302 </v>
   <v>      -0.38958068      -0.15657181       0.37407717 </v>
   <v>      -0.32545567       0.21963620       0.35745224 </v>
   <v>      -0.38320867      -0.16263220       0.36923981 </v>
   <v>      -0.67152514       0.30277599      -0.31732047 </v>
   <v>      -0.62765739      -0.26963344      -0.39514071 </v>
   <v>      -0.56122887       0.32925547      -0.41727392 </v>
   <v>      -0.63263583      -0.24617461      -0.39652008 </v>
   <v>       0.21780585      -0.31667296      -0.42205726 </v>
   <v>       0.14317144       0.43140977      -0.09752819 </v>
   <v>       0.18217390      -0.32105237      -0.43343658 </v>
   <v>       0.19978035       0.13443538      -0.38134042 </v>
   <v>       0.43940292       0.22968100       0.59056066 </v>
   <v>       0.69215629      -0.14373545       0.61584480 </v>
   <v>       0.70187158       0.35022293       0.08698737 </v>
   <v>       0.69489873      -0.14660022       0.59198938 </v>
   <v>       0.46454413      -0.56577850      -0.08345516 </v>
   <v>       0.49924883       0.29709951       0.00278228 </v>
   <v>       0.51913932      -0.19623492       0.14158986 </v>
   <v>       0.45146817       0.16514496       0.22200016 </v>
   <v>       0.20693947       0.16980407      -0.55396166 </v>
   <v>       0.20751504      -0.16920756      -0.34494066 </v>
   <v>       0.17599635       0.11887612      -0.35415966 </v>
   <v>       0.16777730      -0.13209764      -0.36854019 </v>
   <v>      -0.17005562      -0.22145826       0.32749733 </v>
   <v>      -0.22015623       0.32330592       0.25945159 </v>
   <v>      -0.17215144      -0.22183834       0.32795594 </v>
   <v>      -0.19479463       0.27194806       0.23225631 </v>
   <v>      -0.33732282      -0.38854420       0.12964705 </v>
   <v>      -0.30715061       0.43399388       0.26008468 </v>
   <v>      -0.34071937      -0.40633737       0.14512058 </v>
   <v>      -0.12351999       0.50516282       0.20392435 </v>
  </varray>
  <varray name="stress" >
   <v>    -205.65036343      -0.82216786      -1.03770113 </v>
   <v>      -0.82216979    -213.27511243       0.80023454 </v>
   <v>      -1.03770103       0.80023416    -237.18494435 </v>
  </varray>
  <energy>
   <i name="e_fr_energy">   -277.25008696 </i>
   <i name="e_wo_entrp">   -277.26584514 </i>
   <i name="e_0_energy">      0.04727454 </i>
  </energy>
  <time name="totalsc">  173.15  246.29</time>
  <eigenvalues>
   <array>
    <dimension dim="1">band</dimension>
    <dimension dim="2">kpoint</dimension>
    <dimension dim="3">spin</dimension>
    <field>eigene</field>
    <field>occ</field>
    <set>
     <set comment="spin 1">
      <set comment="kpoint 1">
       <r>  -23.9380    1.0000 </r>
       <r>  -23.8375    1.0000 </r>
       <r>  -23.8170    1.0000 </r>
       <r>  -23.7373    1.0000 </r>
       <r>  -23.7164    1.0000 </r>
       <r>  -23.6832    1.0000 </r>
       <r>  -23.6531    1.0000 </r>
       <r>  -23.6174    1.0000 </r>
       <r>  -23.5949    1.0000 </r>
       <r>  -23.5385    1.0000 </r>
       <r>  -23.5327    1.0000 </r>
       <r>  -23.4609    1.0000 </r>
       <r>  -23.2815    1.0000 </r>
       <r>  -23.2711    1.0000 </r>
       <r>  -23.2530    1.0000 </r>
       <r>  -23.2306    1.0000 </r>
       <r>  -23.1384    1.0000 </r>
       <r>  -23.1317    1.0000 </r>
       <r>  -23.1168    1.0000 </r>
       <r>  -23.1100    1.0000 </r>
       <r>  -23.0599    1.0000 </r>
       <r>  -23.0519    1.0000 </r>
       <r>  -23.0230    1.0000 </r>
       <r>  -23.0089    1.0000 </r>
       <r>  -22.9867    1.0000 </r>
       <r>  -22.9757    1.0000 </r>
       <r>  -22.9228    1.0000 </r>
       <r>  -22.9016    1.0000 </r>
       <r>  -22.8409    1.0000 </r>
       <r>  -22.8390    1.0000 </r>
       <r>  -22.8241    1.0000 </r>
       <r>  -22.7866    1.0000 </r>
       <r>  -18.8141    1.0000 </r>
       <r>  -18.7052    1.0000 </r>
       <r>  -18.7001    1.0000 </r>
       <r>  -18.6873    1.0000 </r>
       <r>   -7.0126    1.0000 </r>
       <r>   -6.9744    1.0000 </r>
       <r>   -6.8991    1.0000 </r>
       <r>   -6.8145    1.0000 </r>
       <r>   -6.7837    1.0000 </r>
       <r>   -6.7643    1.0000 </r>
       <r>   -6.7407    1.0000 </r>
       <r>   -6.7032    1.0000 </r>
       <r>   -6.5016    1.0000 </r>
       <r>   -6.4171    1.0000 </r>
       <r>   -6.3203    1.0000 </r>
       <r>   -6.2425    1.0000 </r>
       <r>   -6.2129    1.0000 </r>
       <r>   -6.1913    1.0000 </r>
       <r>   -6.1574    1.0000 </r>
       <r>   -6.1334    1.0000 </r>
       <r>   -6.0964    1.0000 </r>
       <r>   -6.0879    1.0000 </r>
       <r>   -6.0779    1.0000 </r>
       <r>   -6.0687    1.0000 </r>
       <r>   -6.0384    1.0000 </r>
       <r>   -6.0004    1.0000 </r>
       <r>   -5.9768    1.0000 </r>
       <r>   -5.9537    1.0000 </r>
       <r>   -5.9317    1.0000 </r>
       <r>   -5.9251    1.0000 </r>
       <r>   -5.9025    1.0000 </r>
       <r>   -5.8808    1.0000 </r>
       <r>   -5.8385    1.0000 </r>
       <r>   -5.8230    1.0000 </r>
       <r>   -5.7898    1.0000 </r>
       <r>   -5.7652    1.0000 </r>
       <r>   -5.7602    1.0000 </r>
       <r>   -5.7337    1.0000 </r>
       <r>   -5.7110    1.0000 </r>
       <r>   -5.6846    1.0000 </r>
       <r>   -5.6359    1.0000 </r>
       <r>   -5.6252    1.0000 </r>
       <r>   -5.6037    1.0000 </r>
       <r>   -5.5935    1.0000 </r>
       <r>   -5.5586    1.0000 </r>
       <r>   -5.5227    1.0000 </r>
       <r>   -5.4785    1.0000 </r>
       <r>   -5.4535    1.0000 </r>
       <r>   -5.4336    1.0000 </r>
       <r>   -5.4046    1.0000 </r>
       <r>   -5.2563    1.0000 </r>
       <r>   -5.2203    1.0000 </r>
       <r>   -5.1790    1.0000 </r>
       <r>   -5.1606    1.0000 </r>
       <r>   -5.1151    1.0000 </r>
       <r>   -5.0870    1.0000 </r>
       <r>   -5.0446    1.0000 </r>
       <r>   -5.0311    1.0000 </r>
       <r>   -4.9962    1.0000 </r>
       <r>   -4.9865    1.0000 </r>
       <r>   -4.9061    1.0000 </r>
       <r>   -4.8347    1.0000 </r>
       <r>   -4.8019    1.0000 </r>
       <r>   -4.7686    1.0000 </r>
       <r>   -4.7425    1.0000 </r>
       <r>   -4.6928    1.0000 </r>
       <r>   -4.6714    1.0000 </r>
       <r>   -4.6416    1.0000 </r>
       <r>   -4.6198    1.0000 </r>
       <r>   -4.5866    1.0000 </r>
       <r>   -4.5697    1.0000 </r>
       <r>   -4.5422    1.0000 </r>
       <r>   -4.5304    1.0000 </r>
       <r>   -4.5125    1.0000 </r>
       <r>   -4.4874    1.0000 </r>
       <r>   -4.4400    1.0000 </r>
       <r>   -4.3997    1.0000 </r>
       <r>   -4.3853    1.0000 </r>
       <r>   -4.3590    1.0000 </r>
       <r>   -4.3425    1.0000 </r>
       <r>   -4.3343    1.0000 </r>
       <r>   -4.3239    1.0000 </r>
       <r>   -4.2214    1.0000 </r>
       <r>   -4.1781    1.0000 </r>
       <r>   -4.1413    1.0000 </r>
       <r>   -4.1222    1.0000 </r>
       <r>   -4.1043    1.0000 </r>
       <r>   -4.0854    1.0000 </r>
       <r>   -4.0461    1.0000 </r>
       <r>   -4.0386    1.0000 </r>
       <r>   -4.0141    1.0000 </r>
       <r>   -3.9680    1.0000 </r>
       <r>   -3.9520    1.0000 </r>
       <r>   -3.9248    1.0000 </r>
       <r>   -3.9055    1.0000 </r>
       <r>   -3.8436    1.0000 </r>
       <r>   -3.8287    1.0000 </r>
       <r>   -3.8135    1.0000 </r>
       <r>   -3.8027    1.0000 </r>
       <r>   -3.7851    1.0000 </r>
       <r>   -3.7612    1.0000 </r>
       <r>   -3.7420    1.0000 </r>
       <r>   -3.7219    1.0000 </r>
       <r>   -3.6627    1.0000 </r>
       <r>   -3.6567    1.0000 </r>
       <r>   -3.5770    1.0000 </r>
       <r>   -3.5527    1.0000 </r>
       <r>   -3.5230    1.0000 </r>
       <r>   -3.5135    1.0000 </r>
       <r>   -3.4748    1.0000 </r>
       <r>   -3.4554    1.0000 </r>
       <r>   -3.3903    1.0000 </r>
       <r>   -0.8511    1.0000 </r>
       <r>   -0.8299    1.0000 </r>
       <r>   -0.8024    1.0000 </r>
       <r>   -0.7680    1.0000 </r>
       <r>   -0.7548    1.0000 </r>
       <r>   -0.7371    1.0001 </r>
       <r>   -0.6880    1.0002 </r>
       <r>   -0.6791    1.0002 </r>
       <r>   -0.6601    1.0004 </r>
       <r>   -0.6371    1.0007 </r>
       <r>   -0.6296    1.0008 </r>
       <r>   -0.6198    1.0011 </r>
       <r>   -0.6117    1.0013 </r>
       <r>   -0.5889    1.0021 </r>
       <r>   -0.5852    1.0022 </r>
       <r>   -0.5534    1.0041 </r>
       <r>   -0.5263    1.0067 </r>
       <r>   -0.4900    1.0118 </r>
       <r>   -0.4743    1.0147 </r>
       <r>   -0.4630    1.0170 </r>
       <r>   -0.4419    1.0216 </r>
       <r>   -0.4384    1.0224 </r>
       <r>   -0.4357    1.0230 </r>
       <r>   -0.4215    1.0263 </r>
       <r>   -0.4097    1.0289 </r>
       <r>   -0.3984    1.0312 </r>
       <r>   -0.3869    1.0332 </r>
       <r>   -0.3803    1.0341 </r>
       <r>   -0.3755    1.0347 </r>
       <r>   -0.3587    1.0354 </r>
       <r>   -0.3558    1.0354 </r>
       <r>   -0.3450    1.0344 </r>
       <r>   -0.3161    1.0254 </r>
       <r>   -0.2987    1.0141 </r>
       <r>   -0.2772    0.9921 </r>
       <r>   -0.2503    0.9504 </r>
       <r>   -0.2368    0.9227 </r>
       <r>   -0.2151    0.8690 </r>
       <r>   -0.2007    0.8267 </r>
       <r>   -0.1914    0.7967 </r>
       <r>   -0.1898    0.7914 </r>
       <r>   -0.1822    0.7654 </r>
       <r>   -0.1623    0.6920 </r>
       <r>   -0.1409    0.6062 </r>
       <r>   -0.1067    0.4626 </r>
       <r>   -0.0867    0.3794 </r>
       <r>   -0.0715    0.3185 </r>
       <r>   -0.0285    0.1674 </r>
       <r>   -0.0237    0.1532 </r>
       <r>    0.0330    0.0260 </r>
       <r>    0.0477    0.0059 </r>
       <r>    0.0549   -0.0023 </r>
       <r>    0.0957   -0.0300 </r>
       <r>    0.1131   -0.0343 </r>
       <r>    0.1590   -0.0327 </r>
       <r>    0.1856   -0.0274 </r>
       <r>    0.2113   -0.0215 </r>
       <r>    0.2280   -0.0178 </r>
       <r>    0.2374   -0.0158 </r>
       <r>    0.3092   -0.0053 </r>
       <r>    0.3724   -0.0015 </r>
       <r>    0.4146   -0.0006 </r>
       <r>    0.4922   -0.0001 </r>
       <r>    0.5174   -0.0000 </r>
       <r>    0.5331   -0.0000 </r>
       <r>    0.6842   -0.0000 </r>
       <r>    0.7175   -0.0000 </r>
       <r>    0.7378   -0.0000 </r>
       <r>    0.7724   -0.0000 </r>
       <r>    0.8019   -0.0000 </r>
       <r>    0.8835   -0.0000 </r>
       <r>    0.9823   -0.0000 </r>
       <r>    1.0056   -0.0000 </r>
       <r>    1.0375   -0.0000 </r>
       <r>    1.0801   -0.0000 </r>
       <r>    1.0982   -0.0000 </r>
       <r>    1.1353   -0.0000 </r>
       <r>    1.1753   -0.0000 </r>
       <r>    1.2612   -0.0000 </r>
       <r>    1.2650   -0.0000 </r>
       <r>    3.3605   -0.0000 </r>
       <r>    4.2087   -0.0000 </r>
       <r>    4.6407   -0.0000 </r>
       <r>    5.2810    0.0000 </r>
      </set>
     </set>
    </set>
   </array>
  </eigenvalues>
  <separator name="orbital magnetization" >
   <v name="MAGDIPOLOUT">      0.00000000      0.00000000      0.00000000</v>
  </separator>
  <dos>
   <i name="efermi">     -0.11554337 </i>
   <total>
    <array>
     <dimension dim="1">gridpoints</dimension>
     <dimension dim="2">spin</dimension>
     <field>energy</field>
     <field>total</field>
     <field>integrated</field>
     <set>
      <set comment="spin 1">
       <r>   -25.9380     0.0000     0.0000 </r>
       <r>   -25.8272     0.0000     0.0000 </r>
       <r>   -25.7165     0.0000     0.0000 </r>
       <r>   -25.6058    -0.0000    -0.0000 </r>
       <r>   -25.4950    -0.0000    -0.0000 </r>
       <r>   -25.3843    -0.0000    -0.0000 </r>
       <r>   -25.2736    -0.0000    -0.0000 </r>
       <r>   -25.1629    -0.0000    -0.0000 </r>
       <r>   -25.0521    -0.0000    -0.0000 </r>
       <r>   -24.9414    -0.0000    -0.0000 </r>
       <r>   -24.8307    -0.0000    -0.0000 </r>
       <r>   -24.7199    -0.0000    -0.0000 </r>
       <r>   -24.6092    -0.0002    -0.0000 </r>
       <r>   -24.4985    -0.0051    -0.0006 </r>
       <r>   -24.3877    -0.0650    -0.0078 </r>
       <r>   -24.2770    -0.4060    -0.0527 </r>
       <r>   -24.1663    -1.0270    -0.1665 </r>
       <r>   -24.0556     0.5573    -0.1048 </r>
       <r>   -23.9448     9.3371     0.9291 </r>
       <r>   -23.8341    26.3108     3.8425 </r>
       <r>   -23.7234    46.0401     8.9406 </r>
       <r>   -23.6126    57.1460    15.2683 </r>
       <r>   -23.5019    47.8221    20.5637 </r>
       <r>   -23.3912    29.3134    23.8095 </r>
       <r>   -23.2805    31.2635    27.2713 </r>
       <r>   -23.1697    55.6433    33.4327 </r>
       <r>   -23.0590    78.8039    42.1586 </r>
       <r>   -22.9483    83.7335    51.4304 </r>
       <r>   -22.8375    68.3282    58.9964 </r>
       <r>   -22.7268    38.8468    63.2979 </r>
       <r>   -22.6161    10.1348    64.4201 </r>
       <r>   -22.5053    -1.7072    64.2311 </r>
       <r>   -22.3946    -1.6695    64.0462 </r>
       <r>   -22.2839    -0.3768    64.0045 </r>
       <r>   -22.1732    -0.0385    64.0002 </r>
       <r>   -22.0624    -0.0020    64.0000 </r>
       <r>   -21.9517    -0.0001    64.0000 </r>
       <r>   -21.8410    -0.0000    64.0000 </r>
       <r>   -21.7302    -0.0000    64.0000 </r>
       <r>   -21.6195    -0.0000    64.0000 </r>
       <r>   -21.5088    -0.0000    64.0000 </r>
       <r>   -21.3980     0.0000    64.0000 </r>
       <r>   -21.2873     0.0000    64.0000 </r>
       <r>   -21.1766     0.0000    64.0000 </r>
       <r>   -21.0659     0.0000    64.0000 </r>
       <r>   -20.9551     0.0000    64.0000 </r>
       <r>   -20.8444     0.0000    64.0000 </r>
       <r>   -20.7337     0.0000    64.0000 </r>
       <r>   -20.6229     0.0000    64.0000 </r>
       <r>   -20.5122    -0.0000    64.0000 </r>
       <r>   -20.4015    -0.0000    64.0000 </r>
       <r>   -20.2907    -0.0000    64.0000 </r>
       <r>   -20.1800    -0.0000    64.0000 </r>
       <r>   -20.0693    -0.0000    64.0000 </r>
       <r>   -19.9586    -0.0000    64.0000 </r>
       <r>   -19.8478    -0.0000    64.0000 </r>
       <r>   -19.7371    -0.0000    64.0000 </r>
       <r>   -19.6264    -0.0000    64.0000 </r>
       <r>   -19.5156    -0.0001    64.0000 </r>
       <r>   -19.4049    -0.0023    63.9997 </r>
       <r>   -19.2942    -0.0356    63.9958 </r>
       <r>   -19.1834    -0.2779    63.9650 </r>
       <r>   -19.0727    -0.9487    63.8600 </r>
       <r>   -18.9620    -0.0902    63.8500 </r>
       <r>   -18.8513     8.6349    64.8061 </r>
       <r>   -18.7405    24.4838    67.5172 </r>
       <r>   -18.6298    28.2203    70.6420 </r>
       <r>   -18.5191    13.2980    72.1145 </r>
       <r>   -18.4083     0.7180    72.1940 </r>
       <r>   -18.2976    -1.3019    72.0499 </r>
       <r>   -18.1869    -0.3996    72.0056 </r>
       <r>   -18.0761    -0.0479    72.0003 </r>
       <r>   -17.9654    -0.0028    72.0000 </r>
       <r>   -17.8547    -0.0001    72.0000 </r>
       <r>   -17.7440    -0.0000    72.0000 </r>
       <r>   -17.6332    -0.0000    72.0000 </r>
       <r>   -17.5225    -0.0000    72.0000 </r>
       <r>   -17.4118    -0.0000    72.0000 </r>
       <r>   -17.3010     0.0000    72.0000 </r>
       <r>   -17.1903     0.0000    72.0000 </r>
       <r>   -17.0796     0.0000    72.0000 </r>
       <r>   -16.9689     0.0000    72.0000 </r>
       <r>   -16.8581     0.0000    72.0000 </r>
       <r>   -16.7474     0.0000    72.0000 </r>
       <r>   -16.6367     0.0000    72.0000 </r>
       <r>   -16.5259     0.0000    72.0000 </r>
       <r>   -16.4152     0.0000    72.0000 </r>
       <r>   -16.3045     0.0000    72.0000 </r>
       <r>   -16.1937     0.0000    72.0000 </r>
       <r>   -16.0830     0.0000    72.0000 </r>
       <r>   -15.9723     0.0000    72.0000 </r>
       <r>   -15.8616     0.0000    72.0000 </r>
       <r>   -15.7508     0.0000    72.0000 </r>
       <r>   -15.6401     0.0000    72.0000 </r>
       <r>   -15.5294     0.0000    72.0000 </r>
       <r>   -15.4186     0.0000    72.0000 </r>
       <r>   -15.3079     0.0000    72.0000 </r>
       <r>   -15.1972     0.0000    72.0000 </r>
       <r>   -15.0864     0.0000    72.0000 </r>
       <r>   -14.9757     0.0000    72.0000 </r>
       <r>   -14.8650     0.0000    72.0000 </r>
       <r>   -14.7543     0.0000    72.0000 </r>
       <r>   -14.6435     0.0000    72.0000 </r>
       <r>   -14.5328     0.0000    72.0000 </r>
       <r>   -14.4221     0.0000    72.0000 </r>
       <r>   -14.3113     0.0000    72.0000 </r>
       <r>   -14.2006     0.0000    72.0000 </r>
       <r>   -14.0899     0.0000    72.0000 </r>
       <r>   -13.9791     0.0000    72.0000 </r>
       <r>   -13.8684     0.0000    72.0000 </r>
       <r>   -13.7577     0.0000    72.0000 </r>
       <r>   -13.6470     0.0000    72.0000 </r>
       <r>   -13.5362     0.0000    72.0000 </r>
       <r>   -13.4255     0.0000    72.0000 </r>
       <r>   -13.3148     0.0000    72.0000 </r>
       <r>   -13.2040     0.0000    72.0000 </r>
       <r>   -13.0933     0.0000    72.0000 </r>
       <r>   -12.9826     0.0000    72.0000 </r>
       <r>   -12.8718     0.0000    72.0000 </r>
       <r>   -12.7611     0.0000    72.0000 </r>
       <r>   -12.6504     0.0000    72.0000 </r>
       <r>   -12.5397     0.0000    72.0000 </r>
       <r>   -12.4289     0.0000    72.0000 </r>
       <r>   -12.3182     0.0000    72.0000 </r>
       <r>   -12.2075     0.0000    72.0000 </r>
       <r>   -12.0967     0.0000    72.0000 </r>
       <r>   -11.9860     0.0000    72.0000 </r>
       <r>   -11.8753     0.0000    72.0000 </r>
       <r>   -11.7645     0.0000    72.0000 </r>
       <r>   -11.6538     0.0000    72.0000 </r>
       <r>   -11.5431     0.0000    72.0000 </r>
       <r>   -11.4324     0.0000    72.0000 </r>
       <r>   -11.3216     0.0000    72.0000 </r>
       <r>   -11.2109     0.0000    72.0000 </r>
       <r>   -11.1002     0.0000    72.0000 </r>
       <r>   -10.9894     0.0000    72.0000 </r>
       <r>   -10.8787     0.0000    72.0000 </r>
       <r>   -10.7680     0.0000    72.0000 </r>
       <r>   -10.6573     0.0000    72.0000 </r>
       <r>   -10.5465     0.0000    72.0000 </r>
       <r>   -10.4358     0.0000    72.0000 </r>
       <r>   -10.3251     0.0000    72.0000 </r>
       <r>   -10.2143     0.0000    72.0000 </r>
       <r>   -10.1036     0.0000    72.0000 </r>
       <r>    -9.9929     0.0000    72.0000 </r>
       <r>    -9.8821     0.0000    72.0000 </r>
       <r>    -9.7714     0.0000    72.0000 </r>
       <r>    -9.6607     0.0000    72.0000 </r>
       <r>    -9.5500     0.0000    72.0000 </r>
       <r>    -9.4392     0.0000    72.0000 </r>
       <r>    -9.3285     0.0000    72.0000 </r>
       <r>    -9.2178     0.0000    72.0000 </r>
       <r>    -9.1070     0.0000    72.0000 </r>
       <r>    -8.9963     0.0000    72.0000 </r>
       <r>    -8.8856     0.0000    72.0000 </r>
       <r>    -8.7748     0.0000    72.0000 </r>
       <r>    -8.6641    -0.0000    72.0000 </r>
       <r>    -8.5534    -0.0000    72.0000 </r>
       <r>    -8.4427    -0.0000    72.0000 </r>
       <r>    -8.3319    -0.0000    72.0000 </r>
       <r>    -8.2212    -0.0000    72.0000 </r>
       <r>    -8.1105    -0.0000    72.0000 </r>
       <r>    -7.9997    -0.0000    72.0000 </r>
       <r>    -7.8890    -0.0000    72.0000 </r>
       <r>    -7.7783    -0.0000    72.0000 </r>
       <r>    -7.6675    -0.0004    72.0000 </r>
       <r>    -7.5568    -0.0100    71.9988 </r>
       <r>    -7.4461    -0.1170    71.9859 </r>
       <r>    -7.3354    -0.6372    71.9153 </r>
       <r>    -7.2246    -1.0985    71.7937 </r>
       <r>    -7.1139     2.8063    72.1044 </r>
       <r>    -7.0032    15.1104    73.7776 </r>
       <r>    -6.8924    31.3022    77.2437 </r>
       <r>    -6.7817    43.2670    82.0346 </r>
       <r>    -6.6710    38.4459    86.2918 </r>
       <r>    -6.5602    20.6343    88.5766 </r>
       <r>    -6.4495    13.6455    90.0875 </r>
       <r>    -6.3388    21.1524    92.4297 </r>
       <r>    -6.2281    41.2451    96.9968 </r>
       <r>    -6.1173    70.2018   104.7702 </r>
       <r>    -6.0066    88.9285   114.6173 </r>
       <r>    -5.8959    90.7170   124.6624 </r>
       <r>    -5.7851    86.8371   134.2778 </r>
       <r>    -5.6744    83.5956   143.5343 </r>
       <r>    -5.5637    77.3624   152.1007 </r>
       <r>    -5.4529    62.0394   158.9703 </r>
       <r>    -5.3422    41.0824   163.5193 </r>
       <r>    -5.2315    35.6168   167.4632 </r>
       <r>    -5.1208    50.4114   173.0452 </r>
       <r>    -5.0100    58.4252   179.5146 </r>
       <r>    -4.8993    49.8518   185.0347 </r>
       <r>    -4.7886    46.7833   190.2150 </r>
       <r>    -4.6778    60.1714   196.8778 </r>
       <r>    -4.5671    75.8860   205.2806 </r>
       <r>    -4.4564    80.7039   214.2170 </r>
       <r>    -4.3457    73.2116   222.3237 </r>
       <r>    -4.2349    60.8283   229.0592 </r>
       <r>    -4.1242    61.2258   235.8387 </r>
       <r>    -4.0135    72.5719   243.8746 </r>
       <r>    -3.9027    79.0059   252.6229 </r>
       <r>    -3.7920    81.8972   261.6914 </r>
       <r>    -3.6813    76.1083   270.1188 </r>
       <r>    -3.5705    65.0256   277.3191 </r>
       <r>    -3.4598    55.5458   283.4697 </r>
       <r>    -3.3491    34.4755   287.2871 </r>
       <r>    -3.2384     9.4784   288.3367 </r>
       <r>    -3.1276    -1.2132   288.2023 </r>
       <r>    -3.0169    -1.4300   288.0440 </r>
       <r>    -2.9062    -0.3541   288.0048 </r>
       <r>    -2.7954    -0.0407   288.0003 </r>
       <r>    -2.6847    -0.0024   288.0000 </r>
       <r>    -2.5740    -0.0001   288.0000 </r>
       <r>    -2.4632    -0.0000   288.0000 </r>
       <r>    -2.3525    -0.0000   288.0000 </r>
       <r>    -2.2418    -0.0000   288.0000 </r>
       <r>    -2.1311    -0.0000   288.0000 </r>
       <r>    -2.0203    -0.0000   288.0000 </r>
       <r>    -1.9096    -0.0000   288.0000 </r>
       <r>    -1.7989    -0.0000   288.0000 </r>
       <r>    -1.6881    -0.0000   288.0000 </r>
       <r>    -1.5774    -0.0001   288.0000 </r>
       <r>    -1.4667    -0.0020   287.9998 </r>
       <r>    -1.3559    -0.0395   287.9954 </r>
       <r>    -1.2452    -0.3912   287.9521 </r>
       <r>    -1.1345    -1.8049   287.7522 </r>
       <r>    -1.0238    -2.3762   287.4891 </r>
       <r>    -0.9130     9.1806   288.5057 </r>
       <r>    -0.8023    42.2443   293.1834 </r>
       <r>    -0.6916    82.1365   302.2783 </r>
       <r>    -0.5808   109.3055   314.3817 </r>
       <r>    -0.4701   130.0826   328.7857 </r>
       <r>    -0.3594   147.2607   345.0919 </r>
       <r>    -0.2486   141.2144   360.7285 </r>
       <r>    -0.1379   117.3937   373.7275 </r>
       <r>    -0.0272    92.5356   383.9740 </r>
       <r>     0.0835    77.3545   392.5394 </r>
       <r>     0.1943    69.6731   400.2543 </r>
       <r>     0.3050    56.5126   406.5119 </r>
       <r>     0.4157    42.2681   411.1923 </r>
       <r>     0.5265    35.6895   415.1442 </r>
       <r>     0.6372    34.4408   418.9578 </r>
       <r>     0.7479    38.9818   423.2742 </r>
       <r>     0.8587    40.0680   427.7109 </r>
       <r>     0.9694    39.9331   432.1327 </r>
       <r>     1.0801    48.8416   437.5410 </r>
       <r>     1.1908    50.0618   443.0843 </r>
       <r>     1.3016    33.6322   446.8084 </r>
       <r>     1.4123    12.3228   448.1729 </r>
       <r>     1.5230     0.3854   448.2156 </r>
       <r>     1.6338    -1.4066   448.0598 </r>
       <r>     1.7445    -0.4715   448.0076 </r>
       <r>     1.8552    -0.0643   448.0005 </r>
       <r>     1.9659    -0.0043   448.0000 </r>
       <r>     2.0767    -0.0001   448.0000 </r>
       <r>     2.1874    -0.0000   448.0000 </r>
       <r>     2.2981    -0.0000   448.0000 </r>
       <r>     2.4089    -0.0000   448.0000 </r>
       <r>     2.5196    -0.0000   448.0000 </r>
       <r>     2.6303    -0.0000   448.0000 </r>
       <r>     2.7411    -0.0009   447.9999 </r>
       <r>     2.8518    -0.0162   447.9981 </r>
       <r>     2.9625    -0.1319   447.9835 </r>
       <r>     3.0732    -0.3994   447.9393 </r>
       <r>     3.1840     0.3988   447.9834 </r>
       <r>     3.2947     4.4399   448.4751 </r>
       <r>     3.4054     8.0794   449.3697 </r>
       <r>     3.5162     5.4081   449.9685 </r>
       <r>     3.6269     0.8945   450.0676 </r>
       <r>     3.7376    -0.4438   450.0184 </r>
       <r>     3.8484    -0.3984   449.9743 </r>
       <r>     3.9591    -0.4053   449.9294 </r>
       <r>     4.0698     1.3925   450.0836 </r>
       <r>     4.1805     6.0958   450.7586 </r>
       <r>     4.2913     7.6329   451.6038 </r>
       <r>     4.4020     3.3245   451.9719 </r>
       <r>     4.5127     1.8715   452.1792 </r>
       <r>     4.6235     6.2107   452.8669 </r>
       <r>     4.7342     7.5575   453.7037 </r>
       <r>     4.8449     3.0898   454.0458 </r>
       <r>     4.9557    -0.3705   454.0048 </r>
       <r>     5.0664    -0.5125   453.9481 </r>
       <r>     5.1771     2.6358   454.2399 </r>
       <r>     5.2878     7.3888   455.0581 </r>
       <r>     5.3986     6.9628   455.8291 </r>
       <r>     5.5093     2.1625   456.0685 </r>
       <r>     5.6200    -0.2802   456.0375 </r>
       <r>     5.7308    -0.2791   456.0066 </r>
       <r>     5.8415    -0.0547   456.0005 </r>
       <r>     5.9522    -0.0047   456.0000 </r>
       <r>     6.0630    -0.0002   456.0000 </r>
       <r>     6.1737    -0.0000   456.0000 </r>
       <r>     6.2844    -0.0000   456.0000 </r>
       <r>     6.3951    -0.0000   456.0000 </r>
       <r>     6.5059    -0.0000   456.0000 </r>
       <r>     6.6166     0.0000   456.0000 </r>
       <r>     6.7273     0.0000   456.0000 </r>
       <r>     6.8381     0.0000   456.0000 </r>
       <r>     6.9488     0.0000   456.0000 </r>
       <r>     7.0595     0.0000   456.0000 </r>
       <r>     7.1703     0.0000   456.0000 </r>
       <r>     7.2810     0.0000   456.0000 </r>
      </set>
     </set>
    </array>
   </total>
  </dos>
 </calculation>
 <structure name="finalpos" >
  <crystal>
   <varray name="basis" >
    <v>       9.40119100       0.05177400      -0.08412900 </v>
    <v>       0.00000000       5.35946700       0.04849500 </v>
    <v>       0.00000000       0.00000000      14.95565100 </v>
   </varray>
   <i name="volume">    753.54605297 </i>
   <varray name="rec_basis" >
    <v>       0.10636950       0.00000000       0.00000000 </v>
    <v>      -0.00102756       0.18658572       0.00000000 </v>
    <v>       0.00060169      -0.00060502       0.06686436 </v>
   </varray>
  </crystal>
  <varray name="positions" >
   <v>       0.16411200       0.48397600       0.17995900 </v>
   <v>       0.16411200       0.52481400       0.67995900 </v>
   <v>       0.66411200       0.98397600       0.17995900 </v>
   <v>       0.66411200       0.02439400       0.67995900 </v>
   <v>       0.17533200       0.47285200       0.97303200 </v>
   <v>       0.17533200       0.52802200       0.47303200 </v>
   <v>       0.67533200       0.97285200       0.97303200 </v>
   <v>       0.67533200       0.02714800       0.47303200 </v>
   <v>       0.33162900       0.02941400       0.82240100 </v>
   <v>       0.33162900       0.97058600       0.32240100 </v>
   <v>       0.83162900       0.52941400       0.82240100 </v>
   <v>       0.83162900       0.47058600       0.32240100 </v>
   <v>       0.33361900       0.00406500       0.51267100 </v>
   <v>       0.33361900       0.99311700       0.01711500 </v>
   <v>       0.83361900       0.50432000       0.51711500 </v>
   <v>       0.83006700       0.49568000       0.01711500 </v>
   <v>       0.30926400       0.26740800       0.92544800 </v>
   <v>       0.30926400       0.73259200       0.42544800 </v>
   <v>       0.80926400       0.76740800       0.92544800 </v>
   <v>       0.80926400       0.23259200       0.42544800 </v>
   <v>       0.00386100       0.36884200       0.24394900 </v>
   <v>       0.00386100       0.63115800       0.74394900 </v>
   <v>       0.50386100       0.86884200       0.24394900 </v>
   <v>       0.50386100       0.13115800       0.74394900 </v>
   <v>       0.02591400       0.39537700       0.57915900 </v>
   <v>       0.02591400       0.60462300       0.07915900 </v>
   <v>       0.52591400       0.89537700       0.57915900 </v>
   <v>       0.52591400       0.10462300       0.07915900 </v>
   <v>       0.17611800       0.21417000       0.08350500 </v>
   <v>       0.17611800       0.78583000       0.57414400 </v>
   <v>       0.67611800       0.71417000       0.08350500 </v>
   <v>       0.67611800       0.29511000       0.58350500 </v>
   <v>       0.19124200       0.20344500       0.73945400 </v>
   <v>       0.18147400       0.79655500       0.23945400 </v>
   <v>       0.68147400       0.70344500       0.74893500 </v>
   <v>       0.68147400       0.29655500       0.23945400 </v>
   <v>       0.18900300       0.20907800       0.42366300 </v>
   <v>       0.18900300       0.79814000       0.92366300 </v>
   <v>       0.68900300       0.70186000       0.42366300 </v>
   <v>       0.68900300       0.29814000       0.92017200 </v>
   <v>       0.29347700       0.34686800       0.57827500 </v>
   <v>       0.29347700       0.65313200       0.07827500 </v>
   <v>       0.79347700       0.84893200       0.57827500 </v>
   <v>       0.79347700       0.15313200       0.07827500 </v>
   <v>       0.30310600       0.30561100       0.24801900 </v>
   <v>       0.30310600       0.69438900       0.74801900 </v>
   <v>       0.80310600       0.80561100       0.24801900 </v>
   <v>       0.80310600       0.19438900       0.74801900 </v>
   <v>       0.49071400       0.13464800       0.42295500 </v>
   <v>       0.49071400       0.86535200       0.92295500 </v>
   <v>       0.99071400       0.63464800       0.42295500 </v>
   <v>       0.98511200       0.36535200       0.92295500 </v>
  </varray>
 </structure>
</modeling>
