<?xml version="1.0" encoding="ISO-8859-1"?>
<modeling>
 <generator>
  <i name="program" type="string">vasp </i>
  <i name="version" type="string">5.3.5  </i>
  <i name="subversion" type="string">31Mar14 (build Aug 29 2014 19:41:47) complex                          parallel </i>
  <i name="platform" type="string">LinuxIFC </i>
  <i name="date" type="string">2019 04 11 </i>
  <i name="time" type="string">16:26:32 </i>
 </generator>
 <incar>
  <i type="string" name="SYSTEM"> Fe6OF11_var_32</i>
  <i type="int" name="ISTART">     0</i>
  <i type="string" name="PREC">normal</i>
  <i type="string" name="ALGO"> VeryFast</i>
  <i type="int" name="ISPIN">     1</i>
  <i type="int" name="ICHARG">     2</i>
  <i type="int" name="NELM">   300</i>
  <i type="int" name="ISYM">     0</i>
  <i type="logical" name="LWAVE"> F  </i>
  <i type="int" name="NELM">   300</i>
 </incar>
 <kpoints>
  <generation param="Gamma">
   <v type="int" name="divisions">       1        1        1 </v>
   <v name="usershift">      0.00000000       0.00000000       0.00000000 </v>
   <v name="genvec1">      1.00000000       0.00000000       0.00000000 </v>
   <v name="genvec2">      0.00000000       1.00000000       0.00000000 </v>
   <v name="genvec3">      0.00000000       0.00000000       1.00000000 </v>
   <v name="shift">      0.00000000       0.00000000       0.00000000 </v>
  </generation>
  <varray name="kpointlist" >
   <v>       0.00000000       0.00000000       0.00000000 </v>
  </varray>
  <varray name="weights" >
   <v>       1.00000000 </v>
  </varray>
 </kpoints>
 <parameters>
  <separator name="general" >
   <i type="string" name="SYSTEM">Fe6OF11_var_32</i>
   <i type="logical" name="LCOMPAT"> F  </i>
  </separator>
  <separator name="electronic" >
   <i type="string" name="PREC">normal</i>
   <i name="ENMAX">    400.00000000</i>
   <i name="ENAUG">    613.61400000</i>
   <i name="EDIFF">      0.00010000</i>
   <i type="int" name="IALGO">    48</i>
   <i type="int" name="IWAVPR">    10</i>
   <i type="int" name="NBANDS">   160</i>
   <i name="NELECT">    262.00000000</i>
   <i type="int" name="TURBO">     0</i>
   <i type="int" name="IRESTART">     0</i>
   <i type="int" name="NREBOOT">     0</i>
   <i type="int" name="NMIN">     0</i>
   <i name="EREF">      0.00000000</i>
   <separator name="electronic smearing" >
    <i type="int" name="ISMEAR">     1</i>
    <i name="SIGMA">      0.20000000</i>
    <i name="KSPACING">      0.50000000</i>
    <i type="logical" name="KGAMMA"> T  </i>
   </separator>
   <separator name="electronic projectors" >
    <i type="logical" name="LREAL"> F  </i>
    <v name="ROPT">      0.00000000      0.00000000      0.00000000</v>
    <i type="int" name="LMAXPAW">  -100</i>
    <i type="int" name="LMAXMIX">     2</i>
    <i type="logical" name="NLSPLINE"> F  </i>
   </separator>
   <separator name="electronic startup" >
    <i type="int" name="ISTART">     0</i>
    <i type="int" name="ICHARG">     2</i>
    <i type="int" name="INIWAV">     1</i>
   </separator>
   <separator name="electronic spin" >
    <i type="int" name="ISPIN">     1</i>
    <i type="logical" name="LNONCOLLINEAR"> F  </i>
    <v name="MAGMOM">      1.00000000      1.00000000      1.00000000      1.00000000      1.00000000      1.00000000      1.00000000      1.00000000      1.00000000      1.00000000      1.00000000      1.00000000      1.00000000      1.00000000      1.00000000      1.00000000      1.00000000      1.00000000      1.00000000      1.00000000
      1.00000000      1.00000000      1.00000000      1.00000000      1.00000000      1.00000000      1.00000000      1.00000000      1.00000000      1.00000000      1.00000000      1.00000000      1.00000000      1.00000000      1.00000000      1.00000000</v>
    <i name="NUPDOWN">     -1.00000000</i>
    <i type="logical" name="LSORBIT"> F  </i>
    <v name="SAXIS">      0.00000000      0.00000000      1.00000000</v>
    <i type="logical" name="LSPIRAL"> F  </i>
    <v name="QSPIRAL">      0.00000000      0.00000000      0.00000000</v>
    <i type="logical" name="LZEROZ"> F  </i>
   </separator>
   <separator name="electronic exchange-correlation" >
    <i type="logical" name="LASPH"> F  </i>
    <i type="logical" name="LMETAGGA"> F  </i>
   </separator>
   <separator name="electronic convergence" >
    <i type="int" name="NELM">   300</i>
    <i type="int" name="NELMDL">   -12</i>
    <i type="int" name="NELMIN">     2</i>
    <i name="ENINI">    400.00000000</i>
    <separator name="electronic convergence detail" >
     <i type="logical" name="LDIAG"> T  </i>
     <i type="logical" name="LSUBROT"> F  </i>
     <i name="WEIMIN">      0.00000000</i>
     <i name="EBREAK">      0.00000016</i>
     <i name="DEPER">      0.30000000</i>
     <i type="int" name="NRMM">     4</i>
     <i name="TIME">      0.40000000</i>
    </separator>
   </separator>
   <separator name="electronic mixer" >
    <i name="AMIX">      0.40000000</i>
    <i name="BMIX">      1.00000000</i>
    <i name="AMIN">      0.10000000</i>
    <i name="AMIX_MAG">      1.60000000</i>
    <i name="BMIX_MAG">      1.00000000</i>
    <separator name="electronic mixer details" >
     <i type="int" name="IMIX">     4</i>
     <i type="int" name="MAXMIX">   -45</i>
     <i name="WC">    100.00000000</i>
     <i type="int" name="INIMIX">     1</i>
     <i type="int" name="MIXPRE">     1</i>
     <i type="int" name="MREMOVE">     5</i>
    </separator>
   </separator>
   <separator name="electronic dipolcorrection" >
    <i type="logical" name="LDIPOL"> F  </i>
    <i type="logical" name="LMONO"> F  </i>
    <i type="int" name="IDIPOL">     0</i>
    <i name="EPSILON">      1.00000000</i>
    <v name="DIPOL">   -100.00000000   -100.00000000   -100.00000000</v>
    <i name="EFIELD">      0.00000000</i>
   </separator>
  </separator>
  <separator name="grids" >
   <i type="int" name="NGX">    16</i>
   <i type="int" name="NGY">   108</i>
   <i type="int" name="NGZ">    36</i>
   <i type="int" name="NGXF">    32</i>
   <i type="int" name="NGYF">   216</i>
   <i type="int" name="NGZF">    72</i>
   <i type="logical" name="ADDGRID"> F  </i>
  </separator>
  <separator name="ionic" >
   <i type="int" name="NSW">     0</i>
   <i type="int" name="IBRION">    -1</i>
   <i type="int" name="ISIF">     2</i>
   <i name="PSTRESS">      0.00000000</i>
   <i name="EDIFFG">      0.00100000</i>
   <i type="int" name="NFREE">     0</i>
   <i name="POTIM">      0.50000000</i>
   <i name="SMASS">     -3.00000000</i>
   <i name="SCALEE">      1.00000000</i>
  </separator>
  <separator name="ionic md" >
   <i name="TEBEG">      0.00010000</i>
   <i name="TEEND">      0.00010000</i>
   <i type="int" name="NBLOCK">     1</i>
   <i type="int" name="KBLOCK">     1</i>
   <i type="int" name="NPACO">   256</i>
   <i name="APACO">     16.00000000</i>
  </separator>
  <separator name="symmetry" >
   <i type="int" name="ISYM">     0</i>
   <i name="SYMPREC">      0.00001000</i>
  </separator>
  <separator name="dos" >
   <i type="logical" name="LORBIT"> F  </i>
   <v name="RWIGS">     -1.00000000     -1.00000000     -1.00000000</v>
   <i type="int" name="NEDOS">   301</i>
   <i name="EMIN">     10.00000000</i>
   <i name="EMAX">    -10.00000000</i>
   <i name="EFERMI">      0.00000000</i>
  </separator>
  <separator name="writing" >
   <i type="int" name="NWRITE">     2</i>
   <i type="logical" name="LWAVE"> F  </i>
   <i type="logical" name="LCHARG"> T  </i>
   <i type="logical" name="LPARD"> F  </i>
   <i type="logical" name="LVTOT"> F  </i>
   <i type="logical" name="LVHAR"> F  </i>
   <i type="logical" name="LELF"> F  </i>
   <i type="logical" name="LOPTICS"> F  </i>
   <v name="STM">      0.00000000      0.00000000      0.00000000      0.00000000      0.00000000      0.00000000      0.00000000</v>
  </separator>
  <separator name="performance" >
   <i type="int" name="NPAR">     4</i>
   <i type="int" name="NSIM">     4</i>
   <i type="int" name="NBLK">    -1</i>
   <i type="logical" name="LPLANE"> T  </i>
   <i type="logical" name="LSCALAPACK"> T  </i>
   <i type="logical" name="LSCAAWARE"> F  </i>
   <i type="logical" name="LSCALU"> F  </i>
   <i type="logical" name="LASYNC"> F  </i>
   <i type="logical" name="LORBITALREAL"> F  </i>
  </separator>
  <separator name="miscellaneous" >
   <i type="int" name="IDIOT">     3</i>
   <i type="logical" name="LMUSIC"> F  </i>
   <v name="POMASS">     55.84700000     16.00000000     18.99800000</v>
   <v name="DARWINR">      0.00000000      0.00000000      0.00000000</v>
   <v name="DARWINV">      1.00000000      1.00000000      1.00000000</v>
   <i type="logical" name="LCORR"> T  </i>
  </separator>
  <i type="logical" name="GGA_COMPAT"> T  </i>
  <i type="logical" name="LBERRY"> F  </i>
  <i type="int" name="ICORELEVEL">     0</i>
  <i type="logical" name="LDAU"> F  </i>
  <i type="int" name="I_CONSTRAINED_M">     0</i>
  <separator name="electronic exchange-correlation" >
   <i type="string" name="GGA">--</i>
   <i type="int" name="VOSKOWN">     0</i>
   <i type="logical" name="LHFCALC"> F  </i>
   <i type="string" name="PRECFOCK"></i>
   <i type="logical" name="LSYMGRAD"> F  </i>
   <i type="logical" name="LHFONE"> F  </i>
   <i type="logical" name="LRHFCALC"> F  </i>
   <i type="logical" name="LTHOMAS"> F  </i>
   <i type="logical" name="LMODELHF"> F  </i>
   <i name="ENCUT4O">     -1.00000000</i>
   <i type="int" name="EXXOEP">     0</i>
   <i type="int" name="FOURORBIT">     0</i>
   <i name="AEXX">      0.00000000</i>
   <i name="HFALPHA">      0.00000000</i>
   <i name="MCALPHA">      0.00000000</i>
   <i name="ALDAX">      1.00000000</i>
   <i name="AGGAX">      1.00000000</i>
   <i name="ALDAC">      1.00000000</i>
   <i name="AGGAC">      1.00000000</i>
   <i type="int" name="NKREDX">     1</i>
   <i type="int" name="NKREDY">     1</i>
   <i type="int" name="NKREDZ">     1</i>
   <i type="logical" name="SHIFTRED"> F  </i>
   <i type="logical" name="ODDONLY"> F  </i>
   <i type="logical" name="EVENONLY"> F  </i>
   <i type="int" name="LMAXFOCK">     0</i>
   <i type="int" name="NMAXFOCKAE">     0</i>
   <i type="logical" name="LFOCKAEDFT"> F  </i>
   <i name="HFSCREEN">      0.00000000</i>
   <i name="HFSCREENC">      0.00000000</i>
   <i type="int" name="NBANDSGWLOW">     0</i>
  </separator>
  <separator name="vdW DFT" >
   <i type="logical" name="LUSE_VDW"> F  </i>
   <i name="Zab_VDW">     -0.84910000</i>
   <i name="PARAM1">      0.12340000</i>
   <i name="PARAM2">      1.00000000</i>
   <i name="PARAM3">      0.00000000</i>
  </separator>
  <separator name="model GW" >
   <i type="int" name="MODEL_GW">     0</i>
   <i name="MODEL_EPS0">      7.56646665</i>
   <i name="MODEL_ALPHA">      1.00000000</i>
  </separator>
  <separator name="linear response parameters" >
   <i type="logical" name="LEPSILON"> F  </i>
   <i type="logical" name="LRPA"> F  </i>
   <i type="logical" name="LNABLA"> F  </i>
   <i type="logical" name="LVEL"> F  </i>
   <i type="int" name="KINTER">     0</i>
   <i name="CSHIFT">      0.10000000</i>
   <i name="OMEGAMAX">     -1.00000000</i>
   <i name="DEG_THRESHOLD">      0.00200000</i>
  </separator>
  <separator name="orbital magnetization" >
   <i type="logical" name="NUCIND"> F  </i>
   <v name="MAGPOS">      0.00000000      0.00000000      0.00000000</v>
   <i type="logical" name="LNICSALL"> T  </i>
   <i type="logical" name="ORBITALMAG"> F  </i>
   <i type="logical" name="LMAGBLOCH"> F  </i>
   <i type="logical" name="LCHIMAG"> F  </i>
   <i type="logical" name="LGAUGE"> T  </i>
   <i type="int" name="MAGATOM">     0</i>
   <v name="MAGDIPOL">      0.00000000      0.00000000      0.00000000</v>
   <v name="AVECCONST">      0.00000000      0.00000000      0.00000000</v>
  </separator>
  <separator name="response functions" >
   <i type="logical" name="LADDER"> F  </i>
   <i type="logical" name="LFXC"> F  </i>
   <i type="logical" name="LHARTREE"> T  </i>
   <i type="int" name="IBSE">     0</i>
   <i type="logical" name="LTCTE"> F  </i>
   <i type="logical" name="LTETE"> F  </i>
   <i type="logical" name="LTRIPLET"> F  </i>
   <i type="logical" name="LFXCEPS"> F  </i>
   <i type="logical" name="LFXHEG"> F  </i>
   <i type="logical" name="L2ORDER"> F  </i>
   <i type="logical" name="LUSEW"> F  </i>
   <i name="ENCUTGW">     -2.00000000</i>
   <i name="ENCUTGWSOFT">     -2.00000000</i>
   <i name="ENCUTLF">     -1.00000000</i>
   <i type="int" name="LMAXMP2">    -1</i>
   <i name="SCISSOR">      0.00000000</i>
   <i type="int" name="NOMEGA">     0</i>
   <i type="int" name="NOMEGAR">     0</i>
   <i type="int" name="NBANDSGW">    -1</i>
   <i type="int" name="NBANDSO">    -1</i>
   <i type="int" name="NBANDSV">    -1</i>
   <i type="int" name="NELM">   300</i>
   <i type="int" name="DIM">     3</i>
   <i type="int" name="ANTIRES">     0</i>
   <i name="OMEGAMAX">    -30.00000000</i>
   <i name="OMEGAMIN">    -30.00000000</i>
   <i name="OMEGATL">   -200.00000000</i>
   <i type="int" name="OMEGAGRID">     0</i>
   <i name="CSHIFT">     -0.10000000</i>
   <i type="logical" name="SELFENERGY"> F  </i>
   <i type="logical" name="LSPECTRAL"> F  </i>
   <i type="logical" name="ODDONLYGW"> F  </i>
   <i type="logical" name="EVENONLYGW"> F  </i>
   <i type="int" name="NKREDLFX">     1</i>
   <i type="int" name="NKREDLFY">     1</i>
   <i type="int" name="NKREDLFZ">     1</i>
   <i type="int" name="MAXMEM">  1800</i>
   <i type="int" name="TELESCOPE">     0</i>
   <i type="int" name="TAUPAR">     1</i>
  </separator>
  <separator name="External order field" >
   <i name="OFIELD_KAPPA">      0.00000000</i>
   <v name="OFIELD_K">      0.00000000      0.00000000      0.00000000</v>
   <i name="OFIELD_Q6_NEAR">      0.00000000</i>
   <i name="OFIELD_Q6_FAR">      0.00000000</i>
   <i name="OFIELD_A">      0.00000000</i>
  </separator>
 </parameters>
 <atominfo>
  <atoms>      36 </atoms>
  <types>       3 </types>
  <array name="atoms" >
   <dimension dim="1">ion</dimension>
   <field type="string">element</field>
   <field type="int">atomtype</field>
   <set>
    <rc><c>Fe</c><c>   1</c></rc>
    <rc><c>Fe</c><c>   1</c></rc>
    <rc><c>Fe</c><c>   1</c></rc>
    <rc><c>Fe</c><c>   1</c></rc>
    <rc><c>Fe</c><c>   1</c></rc>
    <rc><c>Fe</c><c>   1</c></rc>
    <rc><c>Fe</c><c>   1</c></rc>
    <rc><c>Fe</c><c>   1</c></rc>
    <rc><c>Fe</c><c>   1</c></rc>
    <rc><c>Fe</c><c>   1</c></rc>
    <rc><c>Fe</c><c>   1</c></rc>
    <rc><c>Fe</c><c>   1</c></rc>
    <rc><c>O </c><c>   2</c></rc>
    <rc><c>O </c><c>   2</c></rc>
    <rc><c>F </c><c>   3</c></rc>
    <rc><c>F </c><c>   3</c></rc>
    <rc><c>F </c><c>   3</c></rc>
    <rc><c>F </c><c>   3</c></rc>
    <rc><c>F </c><c>   3</c></rc>
    <rc><c>F </c><c>   3</c></rc>
    <rc><c>F </c><c>   3</c></rc>
    <rc><c>F </c><c>   3</c></rc>
    <rc><c>F </c><c>   3</c></rc>
    <rc><c>F </c><c>   3</c></rc>
    <rc><c>F </c><c>   3</c></rc>
    <rc><c>F </c><c>   3</c></rc>
    <rc><c>F </c><c>   3</c></rc>
    <rc><c>F </c><c>   3</c></rc>
    <rc><c>F </c><c>   3</c></rc>
    <rc><c>F </c><c>   3</c></rc>
    <rc><c>F </c><c>   3</c></rc>
    <rc><c>F </c><c>   3</c></rc>
    <rc><c>F </c><c>   3</c></rc>
    <rc><c>F </c><c>   3</c></rc>
    <rc><c>F </c><c>   3</c></rc>
    <rc><c>F </c><c>   3</c></rc>
   </set>
  </array>
  <array name="atomtypes" >
   <dimension dim="1">type</dimension>
   <field type="int">atomspertype</field>
   <field type="string">element</field>
   <field>mass</field>
   <field>valence</field>
   <field type="string">pseudopotential</field>
   <set>
    <rc><c>  12</c><c>Fe</c><c>     55.84700000</c><c>      8.00000000</c><c>  PAW_PBE Fe 06Sep2000                  </c></rc>
    <rc><c>   2</c><c>O </c><c>     16.00000000</c><c>      6.00000000</c><c>  PAW_PBE O 08Apr2002                   </c></rc>
    <rc><c>  22</c><c>F </c><c>     18.99800000</c><c>      7.00000000</c><c>  PAW_PBE F 08Apr2002                   </c></rc>
   </set>
  </array>
 </atominfo>
 <structure name="initialpos" >
  <crystal>
   <varray name="basis" >
    <v>       3.25262800       0.00000000      -0.03007200 </v>
    <v>       0.00000000      20.54938400       0.00000000 </v>
    <v>       0.00000000       0.00000000       6.79221100 </v>
   </varray>
   <i name="volume">    453.98799923 </i>
   <varray name="rec_basis" >
    <v>       0.30744370       0.00000000       0.00000000 </v>
    <v>       0.00000000       0.04866326       0.00000000 </v>
    <v>       0.00136118       0.00000000       0.14722746 </v>
   </varray>
  </crystal>
  <varray name="positions" >
   <v>       0.00000000       0.16671900       0.50139100 </v>
   <v>       0.00000000       0.83328100       0.50139100 </v>
   <v>       0.00000000       0.66671900       0.00139100 </v>
   <v>       0.99145700       0.33328100       0.00602500 </v>
   <v>       0.50000000       0.16602100       0.00000400 </v>
   <v>       0.50000000       0.83397900       0.00000400 </v>
   <v>       0.50000000       0.66602100       0.50000400 </v>
   <v>       0.50000000       0.33397900       0.50000400 </v>
   <v>       0.00000000       0.00000000       0.00879500 </v>
   <v>       0.00000000       0.50000000       0.51216200 </v>
   <v>       0.50000000       0.00980600       0.47240000 </v>
   <v>       0.49998100       0.50000000       0.97240000 </v>
   <v>       0.00000000       0.00000000       0.31436200 </v>
   <v>       0.00000000       0.50000000       0.81436200 </v>
   <v>       0.99725000       0.16816900       0.20329900 </v>
   <v>       0.00000000       0.83183100       0.20329900 </v>
   <v>       0.00000000       0.66816900       0.70329900 </v>
   <v>       0.99887200       0.33183100       0.70329900 </v>
   <v>       0.00000000       0.16838200       0.79934600 </v>
   <v>       0.00000000       0.83161800       0.79888500 </v>
   <v>       0.00000000       0.66838200       0.29934600 </v>
   <v>       0.00000000       0.33161800       0.29934600 </v>
   <v>       0.49541600       0.06837200       0.99633700 </v>
   <v>       0.50000000       0.93162800       0.99633700 </v>
   <v>       0.50000000       0.56035300       0.49633700 </v>
   <v>       0.50000000       0.43162800       0.49633700 </v>
   <v>       0.50000000       0.10393100       0.50567900 </v>
   <v>       0.50000000       0.90181600       0.50567900 </v>
   <v>       0.50000000       0.59818400       0.00567900 </v>
   <v>       0.50000000       0.40181600       0.00567900 </v>
   <v>       0.50000000       0.23406000       0.50152500 </v>
   <v>       0.50187100       0.76594000       0.50152500 </v>
   <v>       0.50000000       0.73406000       0.00152500 </v>
   <v>       0.50000000       0.26594000       0.00152500 </v>
   <v>       0.00000000       0.00000000       0.69474100 </v>
   <v>       0.00149100       0.50000000       0.19474100 </v>
  </varray>
 </structure>
 <calculation>
  <scstep>
   <time name="diag">    0.21    0.28</time>
   <time name="diis">    0.49    0.67</time>
   <time name="orth">    0.27    0.53</time>
   <time name="total">    1.31    2.03</time>
   <energy>
    <i name="alphaZ">    943.57652748 </i>
    <i name="ewald"> -15973.82042038 </i>
    <i name="hartreedc">  -6710.07303585 </i>
    <i name="XCdc">    902.28239533 </i>
    <i name="pawpsdc">  19213.82102697 </i>
    <i name="pawaedc"> -19422.08171028 </i>
    <i name="eentropy">     -0.15720833 </i>
    <i name="bandstr">   1796.85438062 </i>
    <i name="atom">  22504.09828397 </i>
    <i name="e_fr_energy">   3254.50023952 </i>
    <i name="e_wo_entrp">   3254.65744785 </i>
    <i name="e_0_energy">   3254.55264230 </i>
   </energy>
  </scstep>
  <scstep>
   <time name="diag">    0.20    0.31</time>
   <time name="diis">    0.48    0.76</time>
   <time name="orth">    0.03    0.07</time>
   <time name="total">    0.72    1.14</time>
   <energy>
    <i name="e_fr_energy">   1032.00760458 </i>
    <i name="e_wo_entrp">   1031.93115115 </i>
    <i name="e_0_energy">   1031.98212010 </i>
   </energy>
  </scstep>
  <scstep>
   <time name="diag">    0.29    0.39</time>
   <time name="diis">    0.41    0.64</time>
   <time name="orth">    0.06    0.07</time>
   <time name="total">    0.76    1.10</time>
   <energy>
    <i name="e_fr_energy">    345.63114258 </i>
    <i name="e_wo_entrp">    345.49241287 </i>
    <i name="e_0_energy">    345.58489935 </i>
   </energy>
  </scstep>
  <scstep>
   <time name="diag">    0.46    0.63</time>
   <time name="diis">    0.55    0.69</time>
   <time name="orth">    0.11    0.15</time>
   <time name="total">    1.12    1.46</time>
   <energy>
    <i name="e_fr_energy">     59.94427600 </i>
    <i name="e_wo_entrp">     60.05745282 </i>
    <i name="e_0_energy">     59.98200160 </i>
   </energy>
  </scstep>
  <scstep>
   <time name="diag">    0.21    0.32</time>
   <time name="diis">    0.61    0.61</time>
   <time name="orth">    0.15    0.15</time>
   <time name="total">    0.99    1.10</time>
   <energy>
    <i name="e_fr_energy">    -94.23514544 </i>
    <i name="e_wo_entrp">    -94.25683516 </i>
    <i name="e_0_energy">    -94.24237535 </i>
   </energy>
  </scstep>
  <scstep>
   <time name="diag">    0.28    0.42</time>
   <time name="diis">    0.69    0.76</time>
   <time name="orth">    0.06    0.06</time>
   <time name="total">    1.03    1.24</time>
   <energy>
    <i name="e_fr_energy">   -163.87509416 </i>
    <i name="e_wo_entrp">   -163.90425669 </i>
    <i name="e_0_energy">   -163.88481500 </i>
   </energy>
  </scstep>
  <scstep>
   <time name="diag">    0.32    0.42</time>
   <time name="diis">    0.44    0.64</time>
   <time name="orth">    0.05    0.06</time>
   <time name="total">    0.81    1.12</time>
   <energy>
    <i name="e_fr_energy">   -196.62101928 </i>
    <i name="e_wo_entrp">   -196.73289350 </i>
    <i name="e_0_energy">   -196.65831068 </i>
   </energy>
  </scstep>
  <scstep>
   <time name="diag">    0.27    0.41</time>
   <time name="diis">    0.39    0.56</time>
   <time name="orth">    0.04    0.04</time>
   <time name="total">    0.70    1.02</time>
   <energy>
    <i name="e_fr_energy">   -209.34056759 </i>
    <i name="e_wo_entrp">   -209.51387385 </i>
    <i name="e_0_energy">   -209.39833634 </i>
   </energy>
  </scstep>
  <scstep>
   <time name="diag">    0.31    0.46</time>
   <time name="diis">    1.31    1.89</time>
   <time name="orth">    0.04    0.05</time>
   <time name="total">    1.65    2.40</time>
   <energy>
    <i name="e_fr_energy">   -221.96668263 </i>
    <i name="e_wo_entrp">   -222.18820403 </i>
    <i name="e_0_energy">   -222.04052310 </i>
   </energy>
  </scstep>
  <scstep>
   <time name="diag">    0.24    0.32</time>
   <time name="diis">    1.28    1.95</time>
   <time name="orth">    0.12    0.14</time>
   <time name="total">    1.64    2.40</time>
   <energy>
    <i name="e_fr_energy">   -222.26653739 </i>
    <i name="e_wo_entrp">   -222.41613569 </i>
    <i name="e_0_energy">   -222.31640349 </i>
   </energy>
  </scstep>
  <scstep>
   <time name="diag">    0.20    0.32</time>
   <time name="diis">    1.41    1.95</time>
   <time name="orth">    0.05    0.05</time>
   <time name="total">    1.66    2.33</time>
   <energy>
    <i name="e_fr_energy">   -222.49376916 </i>
    <i name="e_wo_entrp">   -222.62357310 </i>
    <i name="e_0_energy">   -222.53703714 </i>
   </energy>
  </scstep>
  <scstep>
   <time name="diag">    0.27    0.34</time>
   <time name="diis">    1.43    1.79</time>
   <time name="orth">    0.30    0.44</time>
   <time name="total">    2.08    2.69</time>
   <energy>
    <i name="e_fr_energy">   -222.58961651 </i>
    <i name="e_wo_entrp">   -222.71549766 </i>
    <i name="e_0_energy">   -222.63157689 </i>
   </energy>
  </scstep>
  <scstep>
   <time name="diag">    0.20    0.27</time>
   <time name="diis">    0.91    1.34</time>
   <time name="orth">    0.19    0.32</time>
   <time name="total">    1.49    2.17</time>
   <energy>
    <i name="e_fr_energy">   -208.95389266 </i>
    <i name="e_wo_entrp">   -209.07845624 </i>
    <i name="e_0_energy">   -208.99541385 </i>
   </energy>
  </scstep>
  <scstep>
   <time name="diag">    0.30    0.43</time>
   <time name="diis">    1.09    1.48</time>
   <time name="orth">    0.06    0.10</time>
   <time name="total">    1.77    2.43</time>
   <energy>
    <i name="e_fr_energy">   -265.51623952 </i>
    <i name="e_wo_entrp">   -265.37931452 </i>
    <i name="e_0_energy">   -265.47059785 </i>
   </energy>
  </scstep>
  <scstep>
   <time name="diag">    0.33    0.47</time>
   <time name="diis">    0.96    1.36</time>
   <time name="orth">    0.07    0.12</time>
   <time name="total">    1.64    2.29</time>
   <energy>
    <i name="e_fr_energy">   -270.67182525 </i>
    <i name="e_wo_entrp">   -270.55650311 </i>
    <i name="e_0_energy">   -270.63338454 </i>
   </energy>
  </scstep>
  <scstep>
   <time name="diag">    0.42    0.59</time>
   <time name="diis">    1.02    1.46</time>
   <time name="orth">    0.11    0.18</time>
   <time name="total">    1.74    2.49</time>
   <energy>
    <i name="e_fr_energy">   -216.08179383 </i>
    <i name="e_wo_entrp">   -216.03355161 </i>
    <i name="e_0_energy">   -216.06571309 </i>
   </energy>
  </scstep>
  <scstep>
   <time name="diag">    0.59    0.78</time>
   <time name="diis">    0.95    1.29</time>
   <time name="orth">    0.05    0.09</time>
   <time name="total">    1.76    2.42</time>
   <energy>
    <i name="e_fr_energy">   -256.44546336 </i>
    <i name="e_wo_entrp">   -256.45331889 </i>
    <i name="e_0_energy">   -256.44808187 </i>
   </energy>
  </scstep>
  <scstep>
   <time name="diag">    0.30    0.47</time>
   <time name="diis">    0.93    1.41</time>
   <time name="orth">    0.11    0.12</time>
   <time name="total">    1.54    2.22</time>
   <energy>
    <i name="e_fr_energy">   -241.35807457 </i>
    <i name="e_wo_entrp">   -241.31068740 </i>
    <i name="e_0_energy">   -241.34227884 </i>
   </energy>
  </scstep>
  <scstep>
   <time name="diag">    0.17    0.20</time>
   <time name="diis">    0.92    1.48</time>
   <time name="orth">    0.05    0.05</time>
   <time name="total">    1.53    2.25</time>
   <energy>
    <i name="e_fr_energy">   -232.58722004 </i>
    <i name="e_wo_entrp">   -232.55564146 </i>
    <i name="e_0_energy">   -232.57669385 </i>
   </energy>
  </scstep>
  <scstep>
   <time name="diag">    0.29    0.48</time>
   <time name="diis">    1.12    1.44</time>
   <time name="orth">    0.19    0.33</time>
   <time name="total">    2.09    2.92</time>
   <energy>
    <i name="e_fr_energy">   -216.81714051 </i>
    <i name="e_wo_entrp">   -216.86049379 </i>
    <i name="e_0_energy">   -216.83159160 </i>
   </energy>
  </scstep>
  <scstep>
   <time name="diag">    0.19    0.28</time>
   <time name="diis">    1.07    1.42</time>
   <time name="orth">    0.07    0.09</time>
   <time name="total">    1.70    2.16</time>
   <energy>
    <i name="e_fr_energy">   -228.90497614 </i>
    <i name="e_wo_entrp">   -228.89255915 </i>
    <i name="e_0_energy">   -228.90083714 </i>
   </energy>
  </scstep>
  <scstep>
   <time name="diag">    0.15    0.20</time>
   <time name="diis">    0.93    1.56</time>
   <time name="orth">    0.03    0.06</time>
   <time name="total">    1.35    2.10</time>
   <energy>
    <i name="e_fr_energy">   -221.27778229 </i>
    <i name="e_wo_entrp">   -221.25789424 </i>
    <i name="e_0_energy">   -221.27115294 </i>
   </energy>
  </scstep>
  <scstep>
   <time name="diag">    0.32    0.52</time>
   <time name="diis">    1.01    1.33</time>
   <time name="orth">    0.15    0.23</time>
   <time name="total">    1.85    2.55</time>
   <energy>
    <i name="e_fr_energy">   -226.65551107 </i>
    <i name="e_wo_entrp">   -226.74060577 </i>
    <i name="e_0_energy">   -226.68387597 </i>
   </energy>
  </scstep>
  <scstep>
   <time name="diag">    0.26    0.41</time>
   <time name="diis">    1.08    1.45</time>
   <time name="orth">    0.06    0.07</time>
   <time name="total">    1.66    2.31</time>
   <energy>
    <i name="e_fr_energy">   -205.14108360 </i>
    <i name="e_wo_entrp">   -205.08683095 </i>
    <i name="e_0_energy">   -205.12299938 </i>
   </energy>
  </scstep>
  <scstep>
   <time name="diag">    0.28    0.41</time>
   <time name="diis">    0.88    1.29</time>
   <time name="orth">    0.04    0.07</time>
   <time name="total">    1.60    2.28</time>
   <energy>
    <i name="e_fr_energy">   -203.00540999 </i>
    <i name="e_wo_entrp">   -202.89886836 </i>
    <i name="e_0_energy">   -202.96989611 </i>
   </energy>
  </scstep>
  <scstep>
   <time name="diag">    0.23    0.31</time>
   <time name="diis">    0.98    1.37</time>
   <time name="orth">    0.20    0.24</time>
   <time name="total">    2.03    2.85</time>
   <energy>
    <i name="e_fr_energy">   -201.05274741 </i>
    <i name="e_wo_entrp">   -200.87544886 </i>
    <i name="e_0_energy">   -200.99364789 </i>
   </energy>
  </scstep>
  <scstep>
   <time name="diag">    0.20    0.40</time>
   <time name="diis">    1.02    1.59</time>
   <time name="orth">    0.12    0.15</time>
   <time name="total">    1.66    2.69</time>
   <energy>
    <i name="e_fr_energy">   -192.13520562 </i>
    <i name="e_wo_entrp">   -192.20532466 </i>
    <i name="e_0_energy">   -192.15857863 </i>
   </energy>
  </scstep>
  <scstep>
   <time name="diag">    0.25    0.39</time>
   <time name="diis">    1.01    1.44</time>
   <time name="orth">    0.12    0.19</time>
   <time name="total">    1.72    2.52</time>
   <energy>
    <i name="e_fr_energy">   -191.72535734 </i>
    <i name="e_wo_entrp">   -191.69521449 </i>
    <i name="e_0_energy">   -191.71530972 </i>
   </energy>
  </scstep>
  <scstep>
   <time name="diag">    0.23    0.36</time>
   <time name="diis">    1.00    1.39</time>
   <time name="orth">    0.05    0.10</time>
   <time name="total">    1.62    2.23</time>
   <energy>
    <i name="e_fr_energy">   -190.43436759 </i>
    <i name="e_wo_entrp">   -190.45502355 </i>
    <i name="e_0_energy">   -190.44125291 </i>
   </energy>
  </scstep>
  <scstep>
   <time name="diag">    0.27    0.37</time>
   <time name="diis">    0.89    1.37</time>
   <time name="orth">    0.12    0.24</time>
   <time name="total">    1.76    2.61</time>
   <energy>
    <i name="e_fr_energy">   -189.98304159 </i>
    <i name="e_wo_entrp">   -190.02727980 </i>
    <i name="e_0_energy">   -189.99778766 </i>
   </energy>
  </scstep>
  <scstep>
   <time name="diag">    0.25    0.38</time>
   <time name="diis">    0.90    1.41</time>
   <time name="orth">    0.05    0.05</time>
   <time name="total">    1.56    2.38</time>
   <energy>
    <i name="e_fr_energy">   -190.40445986 </i>
    <i name="e_wo_entrp">   -190.48568540 </i>
    <i name="e_0_energy">   -190.43153504 </i>
   </energy>
  </scstep>
  <scstep>
   <time name="diag">    0.13    0.26</time>
   <time name="diis">    1.09    1.41</time>
   <time name="orth">    0.19    0.25</time>
   <time name="total">    1.78    2.35</time>
   <energy>
    <i name="e_fr_energy">   -189.85040684 </i>
    <i name="e_wo_entrp">   -189.86553921 </i>
    <i name="e_0_energy">   -189.85545096 </i>
   </energy>
  </scstep>
  <scstep>
   <time name="diag">    0.24    0.37</time>
   <time name="diis">    0.88    1.31</time>
   <time name="orth">    0.09    0.17</time>
   <time name="total">    1.47    2.23</time>
   <energy>
    <i name="e_fr_energy">   -189.70171044 </i>
    <i name="e_wo_entrp">   -189.71244691 </i>
    <i name="e_0_energy">   -189.70528926 </i>
   </energy>
  </scstep>
  <scstep>
   <time name="diag">    0.35    0.46</time>
   <time name="diis">    1.10    1.58</time>
   <time name="orth">    0.25    0.27</time>
   <time name="total">    1.97    2.69</time>
   <energy>
    <i name="e_fr_energy">   -189.49394190 </i>
    <i name="e_wo_entrp">   -189.47133375 </i>
    <i name="e_0_energy">   -189.48640585 </i>
   </energy>
  </scstep>
  <scstep>
   <time name="diag">    0.18    0.28</time>
   <time name="diis">    1.08    1.53</time>
   <time name="orth">    0.03    0.07</time>
   <time name="total">    1.83    2.68</time>
   <energy>
    <i name="e_fr_energy">   -189.40285735 </i>
    <i name="e_wo_entrp">   -189.36651407 </i>
    <i name="e_0_energy">   -189.39074292 </i>
   </energy>
  </scstep>
  <scstep>
   <time name="diag">    0.27    0.36</time>
   <time name="diis">    1.09    1.45</time>
   <time name="orth">    0.04    0.08</time>
   <time name="total">    1.61    2.31</time>
   <energy>
    <i name="e_fr_energy">   -189.32998600 </i>
    <i name="e_wo_entrp">   -189.31616307 </i>
    <i name="e_0_energy">   -189.32537836 </i>
   </energy>
  </scstep>
  <scstep>
   <time name="diag">    0.43    0.62</time>
   <time name="diis">    1.12    1.69</time>
   <time name="orth">    0.12    0.16</time>
   <time name="total">    1.85    2.75</time>
   <energy>
    <i name="e_fr_energy">   -189.42399829 </i>
    <i name="e_wo_entrp">   -189.31566722 </i>
    <i name="e_0_energy">   -189.38788793 </i>
   </energy>
  </scstep>
  <scstep>
   <time name="diag">    0.17    0.33</time>
   <time name="diis">    0.97    1.46</time>
   <time name="orth">    0.16    0.20</time>
   <time name="total">    1.71    2.49</time>
   <energy>
    <i name="e_fr_energy">   -189.31590129 </i>
    <i name="e_wo_entrp">   -189.30222183 </i>
    <i name="e_0_energy">   -189.31134147 </i>
   </energy>
  </scstep>
  <scstep>
   <time name="diag">    0.28    0.39</time>
   <time name="diis">    1.13    1.55</time>
   <time name="orth">    0.08    0.14</time>
   <time name="total">    1.97    2.81</time>
   <energy>
    <i name="e_fr_energy">   -189.25538697 </i>
    <i name="e_wo_entrp">   -189.23305548 </i>
    <i name="e_0_energy">   -189.24794314 </i>
   </energy>
  </scstep>
  <scstep>
   <time name="diag">    0.26    0.32</time>
   <time name="diis">    0.94    1.50</time>
   <time name="orth">    0.10    0.20</time>
   <time name="total">    1.75    2.68</time>
   <energy>
    <i name="e_fr_energy">   -189.23686400 </i>
    <i name="e_wo_entrp">   -189.21173384 </i>
    <i name="e_0_energy">   -189.22848728 </i>
   </energy>
  </scstep>
  <scstep>
   <time name="diag">    0.17    0.30</time>
   <time name="diis">    1.20    1.57</time>
   <time name="orth">    0.04    0.08</time>
   <time name="total">    1.80    2.55</time>
   <energy>
    <i name="e_fr_energy">   -189.24602724 </i>
    <i name="e_wo_entrp">   -189.21994125 </i>
    <i name="e_0_energy">   -189.23733191 </i>
   </energy>
  </scstep>
  <scstep>
   <time name="diag">    0.13    0.26</time>
   <time name="diis">    0.90    1.31</time>
   <time name="orth">    0.07    0.08</time>
   <time name="total">    1.34    2.02</time>
   <energy>
    <i name="e_fr_energy">   -189.23429375 </i>
    <i name="e_wo_entrp">   -189.19947762 </i>
    <i name="e_0_energy">   -189.22268837 </i>
   </energy>
  </scstep>
  <scstep>
   <time name="diag">    0.29    0.36</time>
   <time name="diis">    0.92    1.31</time>
   <time name="orth">    0.14    0.15</time>
   <time name="total">    1.59    2.17</time>
   <energy>
    <i name="e_fr_energy">   -189.22881419 </i>
    <i name="e_wo_entrp">   -189.19618976 </i>
    <i name="e_0_energy">   -189.21793938 </i>
   </energy>
  </scstep>
  <scstep>
   <time name="diag">    0.19    0.31</time>
   <time name="diis">    0.69    0.95</time>
   <time name="orth">    0.08    0.13</time>
   <time name="total">    1.34    1.88</time>
   <energy>
    <i name="e_fr_energy">   -189.22750577 </i>
    <i name="e_wo_entrp">   -189.19491768 </i>
    <i name="e_0_energy">   -189.21664307 </i>
   </energy>
  </scstep>
  <scstep>
   <time name="diag">    0.29    0.48</time>
   <time name="diis">    0.79    1.25</time>
   <time name="orth">    0.07    0.08</time>
   <time name="total">    1.33    2.12</time>
   <energy>
    <i name="e_fr_energy">   -189.21972355 </i>
    <i name="e_wo_entrp">   -189.18918757 </i>
    <i name="e_0_energy">   -189.20954489 </i>
   </energy>
  </scstep>
  <scstep>
   <time name="diag">    0.16    0.21</time>
   <time name="diis">    0.77    1.25</time>
   <time name="orth">    0.14    0.16</time>
   <time name="total">    1.28    1.90</time>
   <energy>
    <i name="e_fr_energy">   -189.21814579 </i>
    <i name="e_wo_entrp">   -189.18702004 </i>
    <i name="e_0_energy">   -189.20777054 </i>
   </energy>
  </scstep>
  <scstep>
   <time name="diag">    0.31    0.38</time>
   <time name="diis">    0.87    1.22</time>
   <time name="orth">    0.22    0.35</time>
   <time name="total">    1.70    2.26</time>
   <energy>
    <i name="e_fr_energy">   -189.21627633 </i>
    <i name="e_wo_entrp">   -189.19015751 </i>
    <i name="e_0_energy">   -189.20757005 </i>
   </energy>
  </scstep>
  <scstep>
   <time name="diag">    0.27    0.44</time>
   <time name="diis">    0.60    0.87</time>
   <time name="orth">    0.10    0.14</time>
   <time name="total">    1.33    1.91</time>
   <energy>
    <i name="e_fr_energy">   -189.21470094 </i>
    <i name="e_wo_entrp">   -189.18766057 </i>
    <i name="e_0_energy">   -189.20568749 </i>
   </energy>
  </scstep>
  <scstep>
   <time name="diag">    0.26    0.31</time>
   <time name="diis">    0.79    1.10</time>
   <time name="orth">    0.03    0.05</time>
   <time name="total">    1.36    1.91</time>
   <energy>
    <i name="e_fr_energy">   -189.21590004 </i>
    <i name="e_wo_entrp">   -189.19026860 </i>
    <i name="e_0_energy">   -189.20735623 </i>
   </energy>
  </scstep>
  <scstep>
   <time name="diag">    0.48    0.73</time>
   <time name="diis">    0.59    0.82</time>
   <time name="orth">    0.14    0.21</time>
   <time name="total">    1.58    2.31</time>
   <energy>
    <i name="e_fr_energy">   -189.21647472 </i>
    <i name="e_wo_entrp">   -189.19067151 </i>
    <i name="e_0_energy">   -189.20787365 </i>
   </energy>
  </scstep>
  <scstep>
   <time name="diag">    0.31    0.45</time>
   <time name="diis">    0.87    1.10</time>
   <time name="orth">    0.14    0.16</time>
   <time name="total">    1.81    2.35</time>
   <energy>
    <i name="e_fr_energy">   -189.21745286 </i>
    <i name="e_wo_entrp">   -189.19064356 </i>
    <i name="e_0_energy">   -189.20851643 </i>
   </energy>
  </scstep>
  <scstep>
   <time name="diag">    0.20    0.28</time>
   <time name="diis">    0.48    0.75</time>
   <time name="orth">    0.06    0.06</time>
   <time name="total">    1.12    1.69</time>
   <energy>
    <i name="alphaZ">    943.57652748 </i>
    <i name="ewald"> -15973.82042038 </i>
    <i name="hartreedc">  -6869.43436021 </i>
    <i name="XCdc">    918.56911652 </i>
    <i name="pawpsdc">  22427.94950745 </i>
    <i name="pawaedc"> -22638.36179086 </i>
    <i name="eentropy">     -0.02801594 </i>
    <i name="bandstr">  -1501.76623638 </i>
    <i name="atom">  22504.09828397 </i>
    <i name="e_fr_energy">   -189.21738836 </i>
    <i name="e_wo_entrp">   -189.18937242 </i>
    <i name="e_0_energy">   -189.20804972 </i>
   </energy>
  </scstep>
  <structure>
   <crystal>
    <varray name="basis" >
     <v>       3.25262800       0.00000000      -0.03007200 </v>
     <v>       0.00000000      20.54938400       0.00000000 </v>
     <v>       0.00000000       0.00000000       6.79221100 </v>
    </varray>
    <i name="volume">    453.98799923 </i>
    <varray name="rec_basis" >
     <v>       0.30744370       0.00000000       0.00000000 </v>
     <v>       0.00000000       0.04866326       0.00000000 </v>
     <v>       0.00136118       0.00000000       0.14722746 </v>
    </varray>
   </crystal>
   <varray name="positions" >
    <v>       0.00000000       0.16671900       0.50139100 </v>
    <v>       0.00000000       0.83328100       0.50139100 </v>
    <v>       0.00000000       0.66671900       0.00139100 </v>
    <v>       0.99145700       0.33328100       0.00602500 </v>
    <v>       0.50000000       0.16602100       0.00000400 </v>
    <v>       0.50000000       0.83397900       0.00000400 </v>
    <v>       0.50000000       0.66602100       0.50000400 </v>
    <v>       0.50000000       0.33397900       0.50000400 </v>
    <v>       0.00000000       0.00000000       0.00879500 </v>
    <v>       0.00000000       0.50000000       0.51216200 </v>
    <v>       0.50000000       0.00980600       0.47240000 </v>
    <v>       0.49998100       0.50000000       0.97240000 </v>
    <v>       0.00000000       0.00000000       0.31436200 </v>
    <v>       0.00000000       0.50000000       0.81436200 </v>
    <v>       0.99725000       0.16816900       0.20329900 </v>
    <v>       0.00000000       0.83183100       0.20329900 </v>
    <v>       0.00000000       0.66816900       0.70329900 </v>
    <v>       0.99887200       0.33183100       0.70329900 </v>
    <v>       0.00000000       0.16838200       0.79934600 </v>
    <v>       0.00000000       0.83161800       0.79888500 </v>
    <v>       0.00000000       0.66838200       0.29934600 </v>
    <v>       0.00000000       0.33161800       0.29934600 </v>
    <v>       0.49541600       0.06837200       0.99633700 </v>
    <v>       0.50000000       0.93162800       0.99633700 </v>
    <v>       0.50000000       0.56035300       0.49633700 </v>
    <v>       0.50000000       0.43162800       0.49633700 </v>
    <v>       0.50000000       0.10393100       0.50567900 </v>
    <v>       0.50000000       0.90181600       0.50567900 </v>
    <v>       0.50000000       0.59818400       0.00567900 </v>
    <v>       0.50000000       0.40181600       0.00567900 </v>
    <v>       0.50000000       0.23406000       0.50152500 </v>
    <v>       0.50187100       0.76594000       0.50152500 </v>
    <v>       0.50000000       0.73406000       0.00152500 </v>
    <v>       0.50000000       0.26594000       0.00152500 </v>
    <v>       0.00000000       0.00000000       0.69474100 </v>
    <v>       0.00149100       0.50000000       0.19474100 </v>
   </varray>
  </structure>
  <varray name="forces" >
   <v>      -0.03820681       0.68097618       0.11121464 </v>
   <v>       0.01671942       0.36510966       0.05187388 </v>
   <v>      -0.00066831      -0.08268998       0.06586786 </v>
   <v>       0.24679320       0.10131269      -0.27558093 </v>
   <v>      -0.04902754       0.34226522       0.06077579 </v>
   <v>       0.00097173      -0.27594855       0.06276850 </v>
   <v>       0.01729862       0.30940635       0.06138021 </v>
   <v>       0.07040458      -0.28679802       0.14445025 </v>
   <v>      -0.06941545      -0.25316707       1.14695529 </v>
   <v>      -0.00617793      -0.65725918       0.95217102 </v>
   <v>       0.01600627      -1.84264400      -0.21272800 </v>
   <v>       0.05261379      -0.04478015       0.16402651 </v>
   <v>       0.03309857       0.95917491      -0.99000948 </v>
   <v>       0.01718122       0.02449538      -1.10206738 </v>
   <v>       0.01918578      -0.21535320      -0.21601873 </v>
   <v>      -0.03060955       0.17756348      -0.21118166 </v>
   <v>      -0.02657960      -0.24250498      -0.28663189 </v>
   <v>      -0.11725266       0.18864965      -0.18613534 </v>
   <v>       0.05283583      -0.20807754       0.15716313 </v>
   <v>       0.03313769       0.18278410       0.17361524 </v>
   <v>       0.02931776      -0.23491081       0.22721950 </v>
   <v>      -0.07391181       0.18594335       0.24753027 </v>
   <v>       0.06396893      -0.49435497       0.15958648 </v>
   <v>       0.01723346       0.57594137       0.14822998 </v>
   <v>      -0.00381643       0.24838690       0.22907570 </v>
   <v>      -0.00171176       0.54215283       0.23005312 </v>
   <v>       0.00299525       0.33962945      -0.18841575 </v>
   <v>      -0.00378165      -1.11007251      -0.16591036 </v>
   <v>      -0.00033239       0.86687189      -0.18607203 </v>
   <v>      -0.07221655      -0.84562169      -0.10424191 </v>
   <v>      -0.00284867      -0.40407619      -0.03326487 </v>
   <v>      -0.03084233       0.37219391      -0.02453077 </v>
   <v>       0.00083410      -0.41282582      -0.02772255 </v>
   <v>      -0.07261220       0.38787293       0.04222575 </v>
   <v>      -0.03461913       0.76383964      -0.02472310 </v>
   <v>      -0.05596543      -0.00348525      -0.20094836 </v>
  </varray>
  <varray name="stress" >
   <v>    -246.71113961      -0.11668682       2.83126108 </v>
   <v>      -0.11668746    -251.88919034      -0.26158519 </v>
   <v>       2.83126234      -0.26158548    -281.06407698 </v>
  </varray>
  <energy>
   <i name="e_fr_energy">   -189.21738836 </i>
   <i name="e_wo_entrp">   -189.20804972 </i>
   <i name="e_0_energy">     -0.02801594 </i>
  </energy>
  <time name="totalsc">   83.81  119.18</time>
  <eigenvalues>
   <array>
    <dimension dim="1">band</dimension>
    <dimension dim="2">kpoint</dimension>
    <dimension dim="3">spin</dimension>
    <field>eigene</field>
    <field>occ</field>
    <set>
     <set comment="spin 1">
      <set comment="kpoint 1">
       <r>  -23.0943    1.0000 </r>
       <r>  -22.7227    1.0000 </r>
       <r>  -22.7017    1.0000 </r>
       <r>  -22.5866    1.0000 </r>
       <r>  -22.5566    1.0000 </r>
       <r>  -22.4911    1.0000 </r>
       <r>  -22.3485    1.0000 </r>
       <r>  -22.3346    1.0000 </r>
       <r>  -22.3253    1.0000 </r>
       <r>  -22.3038    1.0000 </r>
       <r>  -22.2927    1.0000 </r>
       <r>  -22.2563    1.0000 </r>
       <r>  -22.2307    1.0000 </r>
       <r>  -22.2061    1.0000 </r>
       <r>  -22.1812    1.0000 </r>
       <r>  -22.1743    1.0000 </r>
       <r>  -22.1403    1.0000 </r>
       <r>  -22.1253    1.0000 </r>
       <r>  -22.1109    1.0000 </r>
       <r>  -21.5080    1.0000 </r>
       <r>  -20.9452    1.0000 </r>
       <r>  -20.9357    1.0000 </r>
       <r>  -16.5449    1.0000 </r>
       <r>  -16.4559    1.0000 </r>
       <r>   -6.2898    1.0000 </r>
       <r>   -6.1007    1.0000 </r>
       <r>   -5.9458    1.0000 </r>
       <r>   -5.8586    1.0000 </r>
       <r>   -5.7779    1.0000 </r>
       <r>   -5.5832    1.0000 </r>
       <r>   -5.4531    1.0000 </r>
       <r>   -5.3604    1.0000 </r>
       <r>   -5.2746    1.0000 </r>
       <r>   -5.0066    1.0000 </r>
       <r>   -4.8253    1.0000 </r>
       <r>   -4.7074    1.0000 </r>
       <r>   -4.5758    1.0000 </r>
       <r>   -4.5373    1.0000 </r>
       <r>   -4.5235    1.0000 </r>
       <r>   -4.5039    1.0000 </r>
       <r>   -4.4790    1.0000 </r>
       <r>   -4.3573    1.0000 </r>
       <r>   -4.3551    1.0000 </r>
       <r>   -4.3435    1.0000 </r>
       <r>   -4.3357    1.0000 </r>
       <r>   -4.3041    1.0000 </r>
       <r>   -4.2861    1.0000 </r>
       <r>   -4.2826    1.0000 </r>
       <r>   -4.2532    1.0000 </r>
       <r>   -4.2442    1.0000 </r>
       <r>   -4.2346    1.0000 </r>
       <r>   -4.1819    1.0000 </r>
       <r>   -4.1608    1.0000 </r>
       <r>   -4.1390    1.0000 </r>
       <r>   -4.1071    1.0000 </r>
       <r>   -4.0943    1.0000 </r>
       <r>   -4.0788    1.0000 </r>
       <r>   -4.0467    1.0000 </r>
       <r>   -4.0189    1.0000 </r>
       <r>   -3.9981    1.0000 </r>
       <r>   -3.8632    1.0000 </r>
       <r>   -3.8167    1.0000 </r>
       <r>   -3.7480    1.0000 </r>
       <r>   -3.7135    1.0000 </r>
       <r>   -3.6417    1.0000 </r>
       <r>   -3.6063    1.0000 </r>
       <r>   -3.5981    1.0000 </r>
       <r>   -3.5951    1.0000 </r>
       <r>   -3.5116    1.0000 </r>
       <r>   -3.4996    1.0000 </r>
       <r>   -3.4356    1.0000 </r>
       <r>   -3.3766    1.0000 </r>
       <r>   -3.3493    1.0000 </r>
       <r>   -3.2780    1.0000 </r>
       <r>   -3.2724    1.0000 </r>
       <r>   -3.1810    1.0000 </r>
       <r>   -3.1720    1.0000 </r>
       <r>   -3.1159    1.0000 </r>
       <r>   -3.0994    1.0000 </r>
       <r>   -3.0706    1.0000 </r>
       <r>   -3.0246    1.0000 </r>
       <r>   -3.0085    1.0000 </r>
       <r>   -2.9785    1.0000 </r>
       <r>   -2.9690    1.0000 </r>
       <r>   -2.8839    1.0000 </r>
       <r>   -2.6972    1.0000 </r>
       <r>   -2.6399    1.0000 </r>
       <r>   -2.4468    1.0000 </r>
       <r>   -2.0325    1.0000 </r>
       <r>   -2.0234    1.0000 </r>
       <r>   -1.9996    1.0000 </r>
       <r>   -1.9603    1.0000 </r>
       <r>   -1.7785    1.0000 </r>
       <r>   -1.7761    1.0000 </r>
       <r>   -1.2636    1.0000 </r>
       <r>   -1.2270    1.0000 </r>
       <r>    0.8482    1.0000 </r>
       <r>    0.9174    1.0000 </r>
       <r>    0.9331    1.0000 </r>
       <r>    0.9598    1.0000 </r>
       <r>    0.9737    1.0000 </r>
       <r>    1.0111    1.0000 </r>
       <r>    1.0169    1.0000 </r>
       <r>    1.0286    1.0000 </r>
       <r>    1.0590    1.0000 </r>
       <r>    1.0792    1.0000 </r>
       <r>    1.0881    1.0000 </r>
       <r>    1.1520    1.0000 </r>
       <r>    1.1842    1.0000 </r>
       <r>    1.1879    1.0000 </r>
       <r>    1.1920    1.0000 </r>
       <r>    1.1946    1.0000 </r>
       <r>    1.2453    1.0001 </r>
       <r>    1.2555    1.0001 </r>
       <r>    1.2686    1.0001 </r>
       <r>    1.2887    1.0002 </r>
       <r>    1.3014    1.0003 </r>
       <r>    1.3437    1.0008 </r>
       <r>    1.3459    1.0009 </r>
       <r>    1.3715    1.0015 </r>
       <r>    1.3976    1.0026 </r>
       <r>    1.4077    1.0032 </r>
       <r>    1.4152    1.0037 </r>
       <r>    1.5146    1.0175 </r>
       <r>    1.5542    1.0264 </r>
       <r>    1.6187    1.0354 </r>
       <r>    1.6917    0.9993 </r>
       <r>    1.7183    0.9619 </r>
       <r>    1.7657    0.8526 </r>
       <r>    1.7995    0.7415 </r>
       <r>    1.8472    0.5521 </r>
       <r>    1.8549    0.5192 </r>
       <r>    1.9116    0.2875 </r>
       <r>    1.9757    0.0886 </r>
       <r>    1.9803    0.0781 </r>
       <r>    2.0610   -0.0259 </r>
       <r>    2.1312   -0.0332 </r>
       <r>    2.1408   -0.0315 </r>
       <r>    2.1511   -0.0295 </r>
       <r>    2.1836   -0.0221 </r>
       <r>    2.2403   -0.0108 </r>
       <r>    2.2642   -0.0074 </r>
       <r>    2.2704   -0.0067 </r>
       <r>    2.2934   -0.0044 </r>
       <r>    2.3887   -0.0006 </r>
       <r>    2.3951   -0.0005 </r>
       <r>    2.4053   -0.0004 </r>
       <r>    2.4138   -0.0003 </r>
       <r>    2.4436   -0.0001 </r>
       <r>    2.4571   -0.0001 </r>
       <r>    2.5847   -0.0000 </r>
       <r>    2.9289   -0.0000 </r>
       <r>    3.0975   -0.0000 </r>
       <r>    3.2264   -0.0000 </r>
       <r>    3.2657   -0.0000 </r>
       <r>    3.2922   -0.0000 </r>
       <r>    4.1087   -0.0000 </r>
       <r>    4.5833   -0.0000 </r>
       <r>    4.9427   -0.0000 </r>
       <r>    6.3715   -0.0000 </r>
      </set>
     </set>
    </set>
   </array>
  </eigenvalues>
  <separator name="orbital magnetization" >
   <v name="MAGDIPOLOUT">      0.00000000      0.00000000      0.00000000</v>
  </separator>
  <dos>
   <i name="efermi">      1.85948342 </i>
   <total>
    <array>
     <dimension dim="1">gridpoints</dimension>
     <dimension dim="2">spin</dimension>
     <field>energy</field>
     <field>total</field>
     <field>integrated</field>
     <set>
      <set comment="spin 1">
       <r>   -25.0943     0.0000     0.0000 </r>
       <r>   -24.9827     0.0000     0.0000 </r>
       <r>   -24.8712     0.0000     0.0000 </r>
       <r>   -24.7596    -0.0000    -0.0000 </r>
       <r>   -24.6481    -0.0000    -0.0000 </r>
       <r>   -24.5365    -0.0000    -0.0000 </r>
       <r>   -24.4249    -0.0000    -0.0000 </r>
       <r>   -24.3134    -0.0000    -0.0000 </r>
       <r>   -24.2018    -0.0000    -0.0000 </r>
       <r>   -24.0903    -0.0000    -0.0000 </r>
       <r>   -23.9787    -0.0000    -0.0000 </r>
       <r>   -23.8672    -0.0000    -0.0000 </r>
       <r>   -23.7556    -0.0003    -0.0000 </r>
       <r>   -23.6441    -0.0061    -0.0007 </r>
       <r>   -23.5325    -0.0673    -0.0082 </r>
       <r>   -23.4210    -0.3123    -0.0431 </r>
       <r>   -23.3094    -0.1792    -0.0630 </r>
       <r>   -23.1979     2.6595     0.2336 </r>
       <r>   -23.0863     7.0102     1.0156 </r>
       <r>   -22.9748     5.8364     1.6667 </r>
       <r>   -22.8632     3.1424     2.0172 </r>
       <r>   -22.7517    10.8091     3.2230 </r>
       <r>   -22.6401    23.2705     5.8189 </r>
       <r>   -22.5286    27.7188     8.9110 </r>
       <r>   -22.4170    33.8395    12.6859 </r>
       <r>   -22.3055    59.3740    19.3092 </r>
       <r>   -22.1939    81.7167    28.4249 </r>
       <r>   -22.0823    64.8617    35.6604 </r>
       <r>   -21.9708    24.2477    38.3653 </r>
       <r>   -21.8592     0.0114    38.3665 </r>
       <r>   -21.7477    -3.0200    38.0296 </r>
       <r>   -21.6361     0.9600    38.1367 </r>
       <r>   -21.5246     6.4864    38.8603 </r>
       <r>   -21.4130     7.5594    39.7036 </r>
       <r>   -21.3015     2.6517    39.9994 </r>
       <r>   -21.1899    -0.8388    39.9058 </r>
       <r>   -21.0784     2.5103    40.1858 </r>
       <r>   -20.9668    12.3097    41.5590 </r>
       <r>   -20.8553    15.6588    43.3058 </r>
       <r>   -20.7437     7.0537    44.0926 </r>
       <r>   -20.6322     0.0935    44.1031 </r>
       <r>   -20.5206    -0.7181    44.0230 </r>
       <r>   -20.4091    -0.1858    44.0022 </r>
       <r>   -20.2975    -0.0192    44.0001 </r>
       <r>   -20.1860    -0.0009    44.0000 </r>
       <r>   -20.0744    -0.0000    44.0000 </r>
       <r>   -19.9629    -0.0000    44.0000 </r>
       <r>   -19.8513    -0.0000    44.0000 </r>
       <r>   -19.7397    -0.0000    44.0000 </r>
       <r>   -19.6282    -0.0000    44.0000 </r>
       <r>   -19.5166     0.0000    44.0000 </r>
       <r>   -19.4051     0.0000    44.0000 </r>
       <r>   -19.2935     0.0000    44.0000 </r>
       <r>   -19.1820     0.0000    44.0000 </r>
       <r>   -19.0704     0.0000    44.0000 </r>
       <r>   -18.9589     0.0000    44.0000 </r>
       <r>   -18.8473     0.0000    44.0000 </r>
       <r>   -18.7358     0.0000    44.0000 </r>
       <r>   -18.6242     0.0000    44.0000 </r>
       <r>   -18.5127     0.0000    44.0000 </r>
       <r>   -18.4011     0.0000    44.0000 </r>
       <r>   -18.2896     0.0000    44.0000 </r>
       <r>   -18.1780    -0.0000    44.0000 </r>
       <r>   -18.0665    -0.0000    44.0000 </r>
       <r>   -17.9549    -0.0000    44.0000 </r>
       <r>   -17.8434    -0.0000    44.0000 </r>
       <r>   -17.7318    -0.0000    44.0000 </r>
       <r>   -17.6202    -0.0000    44.0000 </r>
       <r>   -17.5087    -0.0000    44.0000 </r>
       <r>   -17.3971    -0.0000    44.0000 </r>
       <r>   -17.2856    -0.0000    44.0000 </r>
       <r>   -17.1740    -0.0007    43.9999 </r>
       <r>   -17.0625    -0.0145    43.9983 </r>
       <r>   -16.9509    -0.1377    43.9829 </r>
       <r>   -16.8394    -0.5498    43.9216 </r>
       <r>   -16.7278    -0.1401    43.9060 </r>
       <r>   -16.6163     4.9240    44.4553 </r>
       <r>   -16.5047    13.2422    45.9324 </r>
       <r>   -16.3932    13.6965    47.4603 </r>
       <r>   -16.2816     5.5631    48.0809 </r>
       <r>   -16.1701     0.0352    48.0848 </r>
       <r>   -16.0585    -0.5829    48.0198 </r>
       <r>   -15.9470    -0.1587    48.0021 </r>
       <r>   -15.8354    -0.0177    48.0001 </r>
       <r>   -15.7239    -0.0010    48.0000 </r>
       <r>   -15.6123    -0.0000    48.0000 </r>
       <r>   -15.5008    -0.0000    48.0000 </r>
       <r>   -15.3892    -0.0000    48.0000 </r>
       <r>   -15.2776    -0.0000    48.0000 </r>
       <r>   -15.1661    -0.0000    48.0000 </r>
       <r>   -15.0545     0.0000    48.0000 </r>
       <r>   -14.9430     0.0000    48.0000 </r>
       <r>   -14.8314     0.0000    48.0000 </r>
       <r>   -14.7199     0.0000    48.0000 </r>
       <r>   -14.6083     0.0000    48.0000 </r>
       <r>   -14.4968     0.0000    48.0000 </r>
       <r>   -14.3852     0.0000    48.0000 </r>
       <r>   -14.2737     0.0000    48.0000 </r>
       <r>   -14.1621     0.0000    48.0000 </r>
       <r>   -14.0506     0.0000    48.0000 </r>
       <r>   -13.9390     0.0000    48.0000 </r>
       <r>   -13.8275     0.0000    48.0000 </r>
       <r>   -13.7159     0.0000    48.0000 </r>
       <r>   -13.6044     0.0000    48.0000 </r>
       <r>   -13.4928     0.0000    48.0000 </r>
       <r>   -13.3813     0.0000    48.0000 </r>
       <r>   -13.2697     0.0000    48.0000 </r>
       <r>   -13.1582     0.0000    48.0000 </r>
       <r>   -13.0466     0.0000    48.0000 </r>
       <r>   -12.9350     0.0000    48.0000 </r>
       <r>   -12.8235     0.0000    48.0000 </r>
       <r>   -12.7119     0.0000    48.0000 </r>
       <r>   -12.6004     0.0000    48.0000 </r>
       <r>   -12.4888     0.0000    48.0000 </r>
       <r>   -12.3773     0.0000    48.0000 </r>
       <r>   -12.2657     0.0000    48.0000 </r>
       <r>   -12.1542     0.0000    48.0000 </r>
       <r>   -12.0426     0.0000    48.0000 </r>
       <r>   -11.9311     0.0000    48.0000 </r>
       <r>   -11.8195     0.0000    48.0000 </r>
       <r>   -11.7080     0.0000    48.0000 </r>
       <r>   -11.5964     0.0000    48.0000 </r>
       <r>   -11.4849     0.0000    48.0000 </r>
       <r>   -11.3733     0.0000    48.0000 </r>
       <r>   -11.2618     0.0000    48.0000 </r>
       <r>   -11.1502     0.0000    48.0000 </r>
       <r>   -11.0387     0.0000    48.0000 </r>
       <r>   -10.9271     0.0000    48.0000 </r>
       <r>   -10.8156     0.0000    48.0000 </r>
       <r>   -10.7040     0.0000    48.0000 </r>
       <r>   -10.5924     0.0000    48.0000 </r>
       <r>   -10.4809     0.0000    48.0000 </r>
       <r>   -10.3693     0.0000    48.0000 </r>
       <r>   -10.2578     0.0000    48.0000 </r>
       <r>   -10.1462     0.0000    48.0000 </r>
       <r>   -10.0347     0.0000    48.0000 </r>
       <r>    -9.9231     0.0000    48.0000 </r>
       <r>    -9.8116     0.0000    48.0000 </r>
       <r>    -9.7000     0.0000    48.0000 </r>
       <r>    -9.5885     0.0000    48.0000 </r>
       <r>    -9.4769     0.0000    48.0000 </r>
       <r>    -9.3654     0.0000    48.0000 </r>
       <r>    -9.2538     0.0000    48.0000 </r>
       <r>    -9.1423     0.0000    48.0000 </r>
       <r>    -9.0307     0.0000    48.0000 </r>
       <r>    -8.9192     0.0000    48.0000 </r>
       <r>    -8.8076     0.0000    48.0000 </r>
       <r>    -8.6961     0.0000    48.0000 </r>
       <r>    -8.5845     0.0000    48.0000 </r>
       <r>    -8.4730     0.0000    48.0000 </r>
       <r>    -8.3614     0.0000    48.0000 </r>
       <r>    -8.2498     0.0000    48.0000 </r>
       <r>    -8.1383     0.0000    48.0000 </r>
       <r>    -8.0267     0.0000    48.0000 </r>
       <r>    -7.9152    -0.0000    48.0000 </r>
       <r>    -7.8036    -0.0000    48.0000 </r>
       <r>    -7.6921    -0.0000    48.0000 </r>
       <r>    -7.5805    -0.0000    48.0000 </r>
       <r>    -7.4690    -0.0000    48.0000 </r>
       <r>    -7.3574    -0.0000    48.0000 </r>
       <r>    -7.2459    -0.0000    48.0000 </r>
       <r>    -7.1343    -0.0000    48.0000 </r>
       <r>    -7.0228    -0.0000    48.0000 </r>
       <r>    -6.9112    -0.0009    47.9999 </r>
       <r>    -6.7997    -0.0158    47.9981 </r>
       <r>    -6.6881    -0.1329    47.9833 </r>
       <r>    -6.5766    -0.4324    47.9351 </r>
       <r>    -6.4650     0.1966    47.9570 </r>
       <r>    -6.3535     3.9948    48.4026 </r>
       <r>    -6.2419     8.8129    49.3857 </r>
       <r>    -6.1303    10.8954    50.6011 </r>
       <r>    -6.0188    13.1139    52.0640 </r>
       <r>    -5.9072    17.8397    54.0541 </r>
       <r>    -5.7957    19.7402    56.2562 </r>
       <r>    -5.6841    14.9729    57.9264 </r>
       <r>    -5.5726    12.1018    59.2764 </r>
       <r>    -5.4610    16.0544    61.0673 </r>
       <r>    -5.3495    20.1043    63.3100 </r>
       <r>    -5.2379    16.6834    65.1711 </r>
       <r>    -5.1264     8.8574    66.1591 </r>
       <r>    -5.0148     6.9665    66.9363 </r>
       <r>    -4.9033     9.6717    68.0152 </r>
       <r>    -4.7917    11.9459    69.3478 </r>
       <r>    -4.6802    16.8308    71.2253 </r>
       <r>    -4.5686    30.0955    74.5825 </r>
       <r>    -4.4571    49.1473    80.0650 </r>
       <r>    -4.3455    72.2412    88.1237 </r>
       <r>    -4.2340    92.9147    98.4886 </r>
       <r>    -4.1224    91.7378   108.7221 </r>
       <r>    -4.0109    68.5655   116.3708 </r>
       <r>    -3.8993    39.9346   120.8256 </r>
       <r>    -3.7877    29.7981   124.1496 </r>
       <r>    -3.6762    40.7432   128.6946 </r>
       <r>    -3.5646    52.0667   134.5028 </r>
       <r>    -3.4531    50.1513   140.0973 </r>
       <r>    -3.3415    43.5919   144.9601 </r>
       <r>    -3.2300    44.8223   149.9601 </r>
       <r>    -3.1184    54.9607   156.0911 </r>
       <r>    -3.0069    60.9525   162.8905 </r>
       <r>    -2.8953    45.8022   167.9999 </r>
       <r>    -2.7838    22.5325   170.5134 </r>
       <r>    -2.6722    14.6821   172.1512 </r>
       <r>    -2.5607    14.7335   173.7948 </r>
       <r>    -2.4491    11.4411   175.0711 </r>
       <r>    -2.3376     5.7224   175.7094 </r>
       <r>    -2.2260     1.1480   175.8375 </r>
       <r>    -2.1145     9.1859   176.8622 </r>
       <r>    -2.0029    27.3425   179.9123 </r>
       <r>    -1.8914    32.3458   183.5206 </r>
       <r>    -1.7798    23.8935   186.1859 </r>
       <r>    -1.6683    13.6708   187.7110 </r>
       <r>    -1.5567     3.1497   188.0623 </r>
       <r>    -1.4451    -0.6098   187.9943 </r>
       <r>    -1.3336     6.1993   188.6858 </r>
       <r>    -1.2220    15.2499   190.3870 </r>
       <r>    -1.1105    12.5389   191.7857 </r>
       <r>    -0.9989     3.1469   192.1368 </r>
       <r>    -0.8874    -0.6858   192.0603 </r>
       <r>    -0.7758    -0.4556   192.0094 </r>
       <r>    -0.6643    -0.0784   192.0007 </r>
       <r>    -0.5527    -0.0060   192.0000 </r>
       <r>    -0.4412    -0.0002   192.0000 </r>
       <r>    -0.3296    -0.0000   192.0000 </r>
       <r>    -0.2181    -0.0000   192.0000 </r>
       <r>    -0.1065    -0.0000   192.0000 </r>
       <r>     0.0050    -0.0000   192.0000 </r>
       <r>     0.1166    -0.0000   192.0000 </r>
       <r>     0.2281    -0.0011   191.9999 </r>
       <r>     0.3397    -0.0232   191.9973 </r>
       <r>     0.4512    -0.2444   191.9700 </r>
       <r>     0.5628    -1.2677   191.8286 </r>
       <r>     0.6743    -2.3541   191.5660 </r>
       <r>     0.7859     5.0551   192.1299 </r>
       <r>     0.8975    32.9830   195.8092 </r>
       <r>     1.0090    70.0318   203.6215 </r>
       <r>     1.1206    91.4941   213.8278 </r>
       <r>     1.2321   100.5684   225.0465 </r>
       <r>     1.3437    99.1592   236.1079 </r>
       <r>     1.4552    75.0414   244.4790 </r>
       <r>     1.5668    44.9635   249.4948 </r>
       <r>     1.6783    36.3853   253.5537 </r>
       <r>     1.7899    44.8380   258.5554 </r>
       <r>     1.9014    49.1335   264.0364 </r>
       <r>     2.0130    46.0669   269.1753 </r>
       <r>     2.1245    50.0653   274.7602 </r>
       <r>     2.2361    62.0170   281.6783 </r>
       <r>     2.3476    69.6432   289.4472 </r>
       <r>     2.4592    63.5189   296.5329 </r>
       <r>     2.5707    38.2833   300.8035 </r>
       <r>     2.6823    11.5156   302.0881 </r>
       <r>     2.7938     1.3262   302.2360 </r>
       <r>     2.9054     4.4617   302.7337 </r>
       <r>     3.0169    10.1153   303.8621 </r>
       <r>     3.1285    16.3084   305.6814 </r>
       <r>     3.2401    24.8497   308.4534 </r>
       <r>     3.3516    23.5529   311.0808 </r>
       <r>     3.4632     9.5956   312.1512 </r>
       <r>     3.5747    -0.0091   312.1502 </r>
       <r>     3.6863    -1.1346   312.0236 </r>
       <r>     3.7978    -0.6312   311.9532 </r>
       <r>     3.9094    -0.0232   311.9506 </r>
       <r>     4.0209     3.4017   312.3301 </r>
       <r>     4.1325     7.7371   313.1932 </r>
       <r>     4.2440     6.0267   313.8655 </r>
       <r>     4.3556     1.2264   314.0023 </r>
       <r>     4.4671     1.8017   314.2033 </r>
       <r>     4.5787     6.5896   314.9384 </r>
       <r>     4.6902     6.8914   315.7071 </r>
       <r>     4.8018     3.8951   316.1416 </r>
       <r>     4.9133     5.8659   316.7960 </r>
       <r>     5.0249     7.5879   317.6424 </r>
       <r>     5.1364     3.5981   318.0438 </r>
       <r>     5.2480     0.0821   318.0529 </r>
       <r>     5.3596    -0.3664   318.0121 </r>
       <r>     5.4711    -0.0974   318.0012 </r>
       <r>     5.5827    -0.0102   318.0001 </r>
       <r>     5.6942    -0.0007   318.0000 </r>
       <r>     5.8058    -0.0041   317.9995 </r>
       <r>     5.9173    -0.0501   317.9939 </r>
       <r>     6.0289    -0.2681   317.9640 </r>
       <r>     6.1404    -0.2986   317.9307 </r>
       <r>     6.2520     2.0754   318.1622 </r>
       <r>     6.3635     6.9079   318.9328 </r>
       <r>     6.4751     7.4123   319.7597 </r>
       <r>     6.5866     2.7156   320.0626 </r>
       <r>     6.6982    -0.1755   320.0430 </r>
       <r>     6.8097    -0.3122   320.0082 </r>
       <r>     6.9213    -0.0673   320.0007 </r>
       <r>     7.0328    -0.0061   320.0000 </r>
       <r>     7.1444    -0.0003   320.0000 </r>
       <r>     7.2559    -0.0000   320.0000 </r>
       <r>     7.3675    -0.0000   320.0000 </r>
       <r>     7.4790    -0.0000   320.0000 </r>
       <r>     7.5906    -0.0000   320.0000 </r>
       <r>     7.7022    -0.0000   320.0000 </r>
       <r>     7.8137     0.0000   320.0000 </r>
       <r>     7.9253     0.0000   320.0000 </r>
       <r>     8.0368     0.0000   320.0000 </r>
       <r>     8.1484     0.0000   320.0000 </r>
       <r>     8.2599     0.0000   320.0000 </r>
       <r>     8.3715     0.0000   320.0000 </r>
      </set>
     </set>
    </array>
   </total>
  </dos>
 </calculation>
 <structure name="finalpos" >
  <crystal>
   <varray name="basis" >
    <v>       3.25262800       0.00000000      -0.03007200 </v>
    <v>       0.00000000      20.54938400       0.00000000 </v>
    <v>       0.00000000       0.00000000       6.79221100 </v>
   </varray>
   <i name="volume">    453.98799923 </i>
   <varray name="rec_basis" >
    <v>       0.30744370       0.00000000       0.00000000 </v>
    <v>       0.00000000       0.04866326       0.00000000 </v>
    <v>       0.00136118       0.00000000       0.14722746 </v>
   </varray>
  </crystal>
  <varray name="positions" >
   <v>       0.00000000       0.16671900       0.50139100 </v>
   <v>       0.00000000       0.83328100       0.50139100 </v>
   <v>       0.00000000       0.66671900       0.00139100 </v>
   <v>       0.99145700       0.33328100       0.00602500 </v>
   <v>       0.50000000       0.16602100       0.00000400 </v>
   <v>       0.50000000       0.83397900       0.00000400 </v>
   <v>       0.50000000       0.66602100       0.50000400 </v>
   <v>       0.50000000       0.33397900       0.50000400 </v>
   <v>       0.00000000       0.00000000       0.00879500 </v>
   <v>       0.00000000       0.50000000       0.51216200 </v>
   <v>       0.50000000       0.00980600       0.47240000 </v>
   <v>       0.49998100       0.50000000       0.97240000 </v>
   <v>       0.00000000       0.00000000       0.31436200 </v>
   <v>       0.00000000       0.50000000       0.81436200 </v>
   <v>       0.99725000       0.16816900       0.20329900 </v>
   <v>       0.00000000       0.83183100       0.20329900 </v>
   <v>       0.00000000       0.66816900       0.70329900 </v>
   <v>       0.99887200       0.33183100       0.70329900 </v>
   <v>       0.00000000       0.16838200       0.79934600 </v>
   <v>       0.00000000       0.83161800       0.79888500 </v>
   <v>       0.00000000       0.66838200       0.29934600 </v>
   <v>       0.00000000       0.33161800       0.29934600 </v>
   <v>       0.49541600       0.06837200       0.99633700 </v>
   <v>       0.50000000       0.93162800       0.99633700 </v>
   <v>       0.50000000       0.56035300       0.49633700 </v>
   <v>       0.50000000       0.43162800       0.49633700 </v>
   <v>       0.50000000       0.10393100       0.50567900 </v>
   <v>       0.50000000       0.90181600       0.50567900 </v>
   <v>       0.50000000       0.59818400       0.00567900 </v>
   <v>       0.50000000       0.40181600       0.00567900 </v>
   <v>       0.50000000       0.23406000       0.50152500 </v>
   <v>       0.50187100       0.76594000       0.50152500 </v>
   <v>       0.50000000       0.73406000       0.00152500 </v>
   <v>       0.50000000       0.26594000       0.00152500 </v>
   <v>       0.00000000       0.00000000       0.69474100 </v>
   <v>       0.00149100       0.50000000       0.19474100 </v>
  </varray>
 </structure>
</modeling>
