 vasp.5.3.5 31Mar14 (build Aug 29 2014 19:41:47) complex                        
  
 executed on             LinuxIFC date 2019.01.21  17:34:34
 running on    1 total cores
 distrk:  each k-point on    1 cores,    1 groups
 distr:  one band on NCORES_PER_BAND=   1 cores,    1 groups


--------------------------------------------------------------------------------------------------------


 INCAR:
 POTCAR:    PAW_PBE Fe 06Sep2000                  
 POTCAR:    PAW_PBE O 08Apr2002                   
 POTCAR:    PAW_PBE F 08Apr2002                   
 POTCAR:    PAW_PBE Fe 06Sep2000                  
   VRHFIN =Fe:  d7 s1                                                           
   LEXCH  = PE                                                                  
   EATOM  =   594.3153 eV,   43.6809 Ry                                         
                                                                                
   TITEL  = PAW_PBE Fe 06Sep2000                                                
   LULTRA =        F    use ultrasoft PP ?                                      
   IUNSCR =        1    unscreen: 0-lin 1-nonlin 2-no                           
   RPACOR =    2.000    partial core radius                                     
   POMASS =   55.847; ZVAL   =    8.000    mass and valenz                      
   RCORE  =    2.300    outmost cutoff radius                                   
   RWIGS  =    2.460; RWIGS  =    1.302    wigner-seitz radius (au A)           
   ENMAX  =  267.882; ENMIN  =  200.911 eV                                      
   RCLOC  =    1.701    cutoff for local pot                                    
   LCOR   =        T    correct aug charges                                     
   LPAW   =        T    paw PP                                                  
   EAUG   =  511.368                                                            
   DEXC   =    0.000                                                            
   RMAX   =    2.356    core radius for proj-oper                               
   RAUG   =    1.300    factor for augmentation sphere                          
   RDEP   =    2.442    radius for radial grids                                 
   RDEPT  =    1.890    core radius for aug-charge                              
                                                                                
   Atomic configuration                                                         
    9 entries                                                                   
     n  l   j            E        occ.                                          
     1  0  0.50     -6993.8440   2.0000                                         
     2  0  0.50      -814.6047   2.0000                                         
     2  1  1.50      -693.3689   6.0000                                         
     3  0  0.50       -89.4732   2.0000                                         
     3  1  1.50       -55.6373   6.0000                                         
     3  2  2.50        -3.8151   7.0000                                         
     4  0  0.50        -4.2551   1.0000                                         
     4  1  1.50        -3.4015   0.0000                                         
     4  3  2.50        -1.3606   0.0000                                         
   Description                                                                  
     l       E           TYP  RCUT    TYP  RCUT                                 
     2     -3.8151135     23  2.300                                             
     2     -5.1756961     23  2.300                                             
     0     -4.2550963     23  2.300                                             
     0      7.2035603     23  2.300                                             
     1     -2.7211652     23  2.300                                             
     1     18.4316424     23  2.300                                             
  local pseudopotential read in
  partial core-charges read in
  partial kinetic energy density read in
  atomic valenz-charges read in
  non local Contribution for L=           2  read in
    real space projection operators read in
  non local Contribution for L=           2  read in
    real space projection operators read in
  non local Contribution for L=           0  read in
    real space projection operators read in
  non local Contribution for L=           0  read in
    real space projection operators read in
  non local Contribution for L=           1  read in
    real space projection operators read in
  non local Contribution for L=           1  read in
    real space projection operators read in
    PAW grid and wavefunctions read in
 
   number of l-projection  operators is LMAX  =           6
   number of lm-projection operators is LMMAX =          18
 
 POTCAR:    PAW_PBE O 08Apr2002                   
   VRHFIN =O: s2p4                                                              
   LEXCH  = PE                                                                  
   EATOM  =   432.3788 eV,   31.7789 Ry                                         
                                                                                
   TITEL  = PAW_PBE O 08Apr2002                                                 
   LULTRA =        F    use ultrasoft PP ?                                      
   IUNSCR =        1    unscreen: 0-lin 1-nonlin 2-no                           
   RPACOR =    1.200    partial core radius                                     
   POMASS =   16.000; ZVAL   =    6.000    mass and valenz                      
   RCORE  =    1.520    outmost cutoff radius                                   
   RWIGS  =    1.550; RWIGS  =    0.820    wigner-seitz radius (au A)           
   ENMAX  =  400.000; ENMIN  =  300.000 eV                                      
   ICORE  =        2    local potential                                         
   LCOR   =        T    correct aug charges                                     
   LPAW   =        T    paw PP                                                  
   EAUG   =  605.392                                                            
   DEXC   =    0.000                                                            
   RMAX   =    1.553    core radius for proj-oper                               
   RAUG   =    1.300    factor for augmentation sphere                          
   RDEP   =    1.550    radius for radial grids                                 
   RDEPT  =    1.329    core radius for aug-charge                              
                                                                                
   Atomic configuration                                                         
    4 entries                                                                   
     n  l   j            E        occ.                                          
     1  0  0.50      -514.6923   2.0000                                         
     2  0  0.50       -23.9615   2.0000                                         
     2  1  0.50        -9.0305   4.0000                                         
     3  2  1.50        -9.5241   0.0000                                         
   Description                                                                  
     l       E           TYP  RCUT    TYP  RCUT                                 
     0    -23.9615318     23  1.200                                             
     0     -9.5240782     23  1.200                                             
     1     -9.0304911     23  1.520                                             
     1      8.1634956     23  1.520                                             
     2     -9.5240782      7  1.500                                             
  local pseudopotential read in
  partial core-charges read in
  partial kinetic energy density read in
  kinetic energy density of atom read in
  atomic valenz-charges read in
  non local Contribution for L=           0  read in
    real space projection operators read in
  non local Contribution for L=           0  read in
    real space projection operators read in
  non local Contribution for L=           1  read in
    real space projection operators read in
  non local Contribution for L=           1  read in
    real space projection operators read in
    PAW grid and wavefunctions read in
 
   number of l-projection  operators is LMAX  =           4
   number of lm-projection operators is LMMAX =           8
 
 POTCAR:    PAW_PBE F 08Apr2002                   
   VRHFIN =F: s2p5                                                              
   LEXCH  = PE                                                                  
   EATOM  =   659.6475 eV,   48.4827 Ry                                         
                                                                                
   TITEL  = PAW_PBE F 08Apr2002                                                 
   LULTRA =        F    use ultrasoft PP ?                                      
   IUNSCR =        1    unscreen: 0-lin 1-nonlin 2-no                           
   RPACOR =    1.200    partial core radius                                     
   POMASS =   18.998; ZVAL   =    7.000    mass and valenz                      
   RCORE  =    1.520    outmost cutoff radius                                   
   RWIGS  =    1.500; RWIGS  =    0.794    wigner-seitz radius (au A)           
   ENMAX  =  400.000; ENMIN  =  300.000 eV                                      
   ICORE  =        2    local potential                                         
   LCOR   =        T    correct aug charges                                     
   LPAW   =        T    paw PP                                                  
   EAUG   =  613.614                                                            
   RMAX   =    1.555    core radius for proj-oper                               
   RAUG   =    1.300    factor for augmentation sphere                          
   RDEP   =    1.539    radius for radial grids                                 
   RDEPT  =    1.299    core radius for aug-charge                              
                                                                                
   Atomic configuration                                                         
    4 entries                                                                   
     n  l   j            E        occ.                                          
     1  0  0.50      -663.3661   2.0000                                         
     2  0  0.50       -29.8995   2.0000                                         
     2  1  0.50       -11.1114   5.0000                                         
     3  2  1.50       -10.8847   0.0000                                         
   Description                                                                  
     l       E           TYP  RCUT    TYP  RCUT                                 
     0    -29.8995018     23  1.200                                             
     0     -9.5240782     23  1.200                                             
     1    -11.1113914     23  1.520                                             
     1      1.3605826     23  1.520                                             
     2    -10.8846608      7  1.500                                             
  local pseudopotential read in
  partial core-charges read in
  partial kinetic energy density read in
  atomic valenz-charges read in
  non local Contribution for L=           0  read in
    real space projection operators read in
  non local Contribution for L=           0  read in
    real space projection operators read in
  non local Contribution for L=           1  read in
    real space projection operators read in
  non local Contribution for L=           1  read in
    real space projection operators read in
    PAW grid and wavefunctions read in
 
   number of l-projection  operators is LMAX  =           4
   number of lm-projection operators is LMMAX =           8
 
 Optimization of the real space projectors (new method)

 maximal supplied QI-value         = 16.25
 optimisation between [QCUT,QGAM] = [ 10.24, 20.48] = [ 29.35,117.42] Ry 
 Optimized for a Real-space Cutoff    1.51 Angstroem

   l    n(q)    QCUT    max X(q) W(low)/X(q) W(high)/X(q)  e(spline) 
   2      8    10.239    80.901    0.43E-03    0.67E-03    0.20E-06
   2      8    10.239    75.754    0.44E-03    0.68E-03    0.20E-06
   0      9    10.239    58.752    0.81E-04    0.41E-04    0.71E-07
   0      9    10.239    30.679    0.75E-04    0.39E-04    0.65E-07
   1      9    10.239    17.977    0.50E-04    0.16E-03    0.11E-06
   1      9    10.239    13.559    0.39E-04    0.13E-03    0.98E-07
 Optimization of the real space projectors (new method)

 maximal supplied QI-value         = 24.76
 optimisation between [QCUT,QGAM] = [ 10.15, 20.30] = [ 28.85,115.39] Ry 
 Optimized for a Real-space Cutoff    1.38 Angstroem

   l    n(q)    QCUT    max X(q) W(low)/X(q) W(high)/X(q)  e(spline) 
   0      8    10.150    20.381    0.22E-03    0.32E-03    0.29E-06
   0      8    10.150    15.268    0.23E-03    0.35E-03    0.30E-06
   1      8    10.150     5.964    0.46E-03    0.53E-03    0.21E-06
   1      8    10.150     5.382    0.38E-03    0.45E-03    0.19E-06
 Optimization of the real space projectors (new method)

 maximal supplied QI-value         = 24.76
 optimisation between [QCUT,QGAM] = [ 10.15, 20.30] = [ 28.85,115.39] Ry 
 Optimized for a Real-space Cutoff    1.38 Angstroem

   l    n(q)    QCUT    max X(q) W(low)/X(q) W(high)/X(q)  e(spline) 
   0      8    10.150    14.049    0.15E-03    0.22E-03    0.24E-06
   0      8    10.150     8.945    0.21E-03    0.31E-03    0.30E-06
   1      8    10.150     7.086    0.42E-03    0.48E-03    0.23E-06
   1      8    10.150     6.747    0.37E-03    0.43E-03    0.21E-06
  PAW_PBE Fe 06Sep2000                  :
 energy of atom  1       EATOM= -594.3153
 kinetic energy error for atom=    0.0088 (will be added to EATOM!!)
  PAW_PBE O 08Apr2002                   :
 energy of atom  2       EATOM= -432.3788
 kinetic energy error for atom=    0.1156 (will be added to EATOM!!)
  PAW_PBE F 08Apr2002                   :
 energy of atom  3       EATOM= -659.6475
 kinetic energy error for atom=    0.1978 (will be added to EATOM!!)
 
 
 POSCAR: Fe8 O2 F14                              
  positions in direct lattice
  No initial velocities read in
 exchange correlation table for  LEXCH =        8
   RHO(1)=    0.500       N(1)  =     2000
   RHO(2)=  100.500       N(2)  =     4000
 


--------------------------------------------------------------------------------------------------------


 ion  position               nearest neighbor table
   1  0.247  0.249  0.746-  18 2.04  12 2.05  23 2.12  15 2.12  13 2.13  19 2.13
   2  0.247  0.751  0.246-  17 2.04  11 2.05  24 2.12  16 2.12  14 2.13  20 2.13
   3  0.515  0.245  0.499-  16 2.07   9 2.07  22 2.09  19 2.15  13 2.19  17 2.21   5 3.06
   4  0.515  0.755  0.999-  15 2.07  10 2.07  21 2.09  20 2.15  14 2.19  18 2.21   6 3.06
   5  0.754  0.231  0.265-   9 1.84  24 2.00  20 2.01  11 2.03  17 2.04  21 2.13   3 3.06
   6  0.754  0.769  0.765-  10 1.84  23 2.00  19 2.01  12 2.03  18 2.04  22 2.13   4 3.06
   7  0.990  0.241  0.997-  10 2.00  14 2.09  15 2.16  23 2.17  11 2.20  21 2.20
   8  0.990  0.759  0.497-   9 2.00  13 2.09  16 2.16  24 2.17  12 2.20  22 2.20
   9  0.779  0.058  0.417-   5 1.84   8 2.00   3 2.07
  10  0.779  0.942  0.917-   6 1.84   7 2.00   4 2.07
  11  0.014  0.058  0.183-   5 2.03   2 2.05   7 2.20
  12  0.014  0.942  0.683-   6 2.03   1 2.05   8 2.20
  13  0.222  0.449  0.571-   8 2.09   1 2.13   3 2.19
  14  0.222  0.551  0.071-   7 2.09   2 2.13   4 2.19
  15  0.279  0.052  0.922-   4 2.07   1 2.12   7 2.16
  16  0.279  0.948  0.422-   3 2.07   2 2.12   8 2.16
  17  0.482  0.454  0.316-   5 2.04   2 2.04   3 2.21
  18  0.482  0.546  0.816-   6 2.04   1 2.04   4 2.21
  19  0.523  0.036  0.674-   6 2.01   1 2.13   3 2.15
  20  0.523  0.964  0.174-   5 2.01   2 2.13   4 2.15
  21  0.722  0.443  0.091-   4 2.09   5 2.13   7 2.20
  22  0.722  0.557  0.591-   3 2.09   6 2.13   8 2.20
  23  0.973  0.457  0.820-   6 2.00   1 2.12   7 2.17
  24  0.973  0.543  0.320-   5 2.00   2 2.12   8 2.17
 

IMPORTANT INFORMATION: All symmetrisations will be switched off!
NOSYMM: (Re-)initialisation of all symmetry stuff for point group C_1.

 
 
 KPOINTS: Automatic mesh                          

Automatic generation of k-mesh.
Space group operators:
 irot       det(A)        alpha          n_x          n_y          n_z        tau_x        tau_y        tau_z
    1     1.000000     0.000000     1.000000     0.000000     0.000000     0.000000     0.000000     0.000000
 
 Subroutine IBZKPT returns following result:
 ===========================================
 
 Found      8 irreducible k-points:
 
 Following reciprocal coordinates:
            Coordinates               Weight
  0.000000  0.000000  0.000000      1.000000
  0.500000  0.000000  0.000000      1.000000
  0.000000  0.500000  0.000000      1.000000
  0.500000  0.500000  0.000000      1.000000
 -0.000000  0.000000  0.500000      1.000000
  0.500000  0.000000  0.500000      1.000000
 -0.000000  0.500000  0.500000      1.000000
  0.500000  0.500000  0.500000      1.000000
 
 Following cartesian coordinates:
            Coordinates               Weight
  0.000000  0.000000  0.000000      1.000000
  0.087170  0.000000  0.000000      1.000000
  0.000000  0.104484  0.000000      1.000000
  0.087170  0.104484  0.000000      1.000000
  0.006329  0.000000  0.045939      1.000000
  0.093499  0.000000  0.045939      1.000000
  0.006329  0.104484  0.045939      1.000000
  0.093499  0.104484  0.045939      1.000000
 


--------------------------------------------------------------------------------------------------------




 Dimension of arrays:
   k-points           NKPTS =      8   k-points in BZ     NKDIM =      8   number of bands    NBANDS=    104
   number of dos      NEDOS =    301   number of ions     NIONS =     24
   non local maximal  LDIM  =      6   non local SUM 2l+1 LMDIM =     18
   total plane-waves  NPLWV =  36288
   max r-space proj   IRMAX =   1796   max aug-charges    IRDMAX=   4526
   dimension x,y,z NGX =    28 NGY =   24 NGZ =   54
   dimension x,y,z NGXF=    56 NGYF=   48 NGZF=  108
   support grid    NGXF=    56 NGYF=   48 NGZF=  108
   ions per type =               8   2  14
 NGX,Y,Z   is equivalent  to a cutoff of   8.04,  8.34,  8.25 a.u.
 NGXF,Y,Z  is equivalent  to a cutoff of  16.08, 16.68, 16.50 a.u.


 I would recommend the setting:
   dimension x,y,z NGX =    28 NGY =   23 NGZ =   53
 SYSTEM =  tssm                                    
 POSCAR =  Fe8 O2 F14                              

 Startparameter for this run:
   NWRITE =      2    write-flag & timer
   PREC   = normal    normal or accurate (medium, high low for compatibility)
   ISTART =      0    job   : 0-new  1-cont  2-samecut
   ICHARG =      2    charge: 1-file 2-atom 10-const
   ISPIN  =      1    spin polarized calculation?
   LNONCOLLINEAR =      F non collinear calculations
   LSORBIT =      F    spin-orbit coupling
   INIWAV =      1    electr: 0-lowe 1-rand  2-diag
   LASPH  =      F    aspherical Exc in radial PAW
   METAGGA=      F    non-selfconsistent MetaGGA calc.

 Electronic Relaxation 1
   ENCUT  =  400.0 eV  29.40 Ry    5.42 a.u.   9.44  7.80 17.75*2*pi/ulx,y,z
   ENINI  =  400.0     initial cutoff
   ENAUG  =  613.6 eV  augmentation charge cutoff
   NELM   =    300;   NELMIN=  2; NELMDL=-12     # of ELM steps 
   EDIFF  = 0.1E-03   stopping-criterion for ELM
   LREAL  =      T    real-space projection
   NLSPLINE    = F    spline interpolate recip. space projectors
   LCOMPAT=      F    compatible to vasp.4.4
   GGA_COMPAT  = T    GGA compatible to vasp.4.4-vasp.4.6
   LMAXPAW     = -100 max onsite density
   LMAXMIX     =    2 max onsite mixed and CHGCAR
   VOSKOWN=      0    Vosko Wilk Nusair interpolation
   ROPT   =   -0.00050  -0.00050  -0.00050
 Ionic relaxation
   EDIFFG = 0.1E-02   stopping-criterion for IOM
   NSW    =      1    number of steps for IOM
   NBLOCK =      1;   KBLOCK =      1    inner block; outer block 
   IBRION =      1    ionic relax: 0-MD 1-quasi-New 2-CG
   NFREE  =      0    steps in history (QN), initial steepest desc. (CG)
   ISIF   =      2    stress and relaxation
   IWAVPR =     11    prediction:  0-non 1-charg 2-wave 3-comb
   ISYM   =      0    0-nonsym 1-usesym 2-fastsym
   LCORR  =      T    Harris-Foulkes like correction to forces

   POTIM  = 0.5000    time-step for ionic-motion
   TEIN   =    0.0    initial temperature
   TEBEG  =    0.0;   TEEND  =   0.0 temperature during run
   SMASS  =  -3.00    Nose mass-parameter (am)
   estimated Nose-frequenzy (Omega)   =  0.10E-29 period in steps =****** mass=  -0.766E-27a.u.
   SCALEE = 1.0000    scale energy and forces
   NPACO  =    256;   APACO  = 16.0  distance and # of slots for P.C.
   PSTRESS=    0.0 pullay stress

  Mass of Ions in am
   POMASS =  55.85 16.00 19.00
  Ionic Valenz
   ZVAL   =   8.00  6.00  7.00
  Atomic Wigner-Seitz radii
   RWIGS  =  -1.00 -1.00 -1.00
  virtual crystal weights 
   VCA    =   1.00  1.00  1.00
   NELECT =     174.0000    total number of electrons
   NUPDOWN=      -1.0000    fix difference up-down

 DOS related values:
   EMIN   =  10.00;   EMAX   =-10.00  energy-range for DOS
   EFERMI =   0.00
   ISMEAR =     1;   SIGMA  =   0.20  broadening in eV -4-tet -1-fermi 0-gaus

 Electronic relaxation 2 (details)
   IALGO  =     48    algorithm
   LDIAG  =      T    sub-space diagonalisation (order eigenvalues)
   LSUBROT=      F    optimize rotation matrix (better conditioning)
   TURBO    =      0    0=normal 1=particle mesh
   IRESTART =      0    0=no restart 2=restart with 2 vectors
   NREBOOT  =      0    no. of reboots
   NMIN     =      0    reboot dimension
   EREF     =   0.00    reference energy to select bands
   IMIX   =      4    mixing-type and parameters
     AMIX     =   0.40;   BMIX     =  1.00
     AMIX_MAG =   1.60;   BMIX_MAG =  1.00
     AMIN     =   0.01
     WC   =   100.;   INIMIX=   1;  MIXPRE=   1;  MAXMIX= -45

 Intra band minimization:
   WEIMIN = 0.0010     energy-eigenvalue tresh-hold
   EBREAK =  0.24E-06  absolut break condition
   DEPER  =   0.30     relativ break condition  

   TIME   =   0.40     timestep for ELM

  volume/ion in A,a.u.               =      12.45        84.00
  Fermi-wavevector in a.u.,A,eV,Ry     =   1.367164  2.583565 25.431145  1.869136
  Thomas-Fermi vector in A             =   2.493240
 
 Write flags
   LWAVE  =      F    write WAVECAR
   LCHARG =      T    write CHGCAR
   LVTOT  =      F    write LOCPOT, total local potential
   LVHAR  =      F    write LOCPOT, Hartree potential only
   LELF   =      F    write electronic localiz. function (ELF)
   LORBIT =      0    0 simple, 1 ext, 2 COOP (PROOUT)


 Dipole corrections
   LMONO  =      F    monopole corrections only (constant potential shift)
   LDIPOL =      F    correct potential (dipole corrections)
   IDIPOL =      0    1-x, 2-y, 3-z, 4-all directions 
   EPSILON=  1.0000000 bulk dielectric constant

 Exchange correlation treatment:
   GGA     =    --    GGA type
   LEXCH   =     8    internal setting for exchange type
   VOSKOWN=      0    Vosko Wilk Nusair interpolation
   LHFCALC =     F    Hartree Fock is set to
   LHFONE  =     F    Hartree Fock one center treatment
   AEXX    =    0.0000 exact exchange contribution

 Linear response parameters
   LEPSILON=     F    determine dielectric tensor
   LRPA    =     F    only Hartree local field effects (RPA)
   LNABLA  =     F    use nabla operator in PAW spheres
   LVEL    =     F    velocity operator in full k-point grid
   LINTERFAST=   F  fast interpolation
   KINTER  =     0    interpolate to denser k-point grid
   CSHIFT  =0.1000    complex shift for real part using Kramers Kronig
   OMEGAMAX=  -1.0    maximum frequency
   DEG_THRESHOLD= 0.2000000E-02 threshold for treating states as degnerate
   RTIME   =    0.100 relaxation time in fs

 Orbital magnetization related:
   ORBITALMAG=     F  switch on orbital magnetization
   LCHIMAG   =     F  perturbation theory with respect to B field
   DQ        =  0.001000  dq finite difference perturbation B field



--------------------------------------------------------------------------------------------------------


 quasi-Newton-method for relaxation of ions
 charge density and potential will be updated during run
 non-spin polarized calculation
 RMM-DIIS sequential band-by-band
 perform sub-space diagonalisation
    before iterative eigenvector-optimisation
 modified Broyden-mixing scheme, WC =      100.0
 initial mixing is a Kerker type mixing with AMIX =  0.4000 and BMIX =      1.0000
 Hartree-type preconditioning will be used
 using additional bands           17
 real space projection scheme for non local part
 use partial core corrections
 calculate Harris-corrections to forces 
   (improved forces if not selfconsistent)
 use gradient corrections 
 use of overlap-Matrix (Vanderbilt PP)
 Methfessel and Paxton  Order N= 1 SIGMA  =   0.20


--------------------------------------------------------------------------------------------------------


  energy-cutoff  :      400.00
  volume of cell :      298.75
      direct lattice vectors                 reciprocal lattice vectors
     5.735919000  0.000000000 -0.790267000     0.174339979  0.000000000  0.000000000
     0.000000000  4.785442000  0.000000000     0.000000000  0.208967113  0.000000000
     0.000000000  0.000000000 10.883966000     0.012658541  0.000000000  0.091878273

  length of vectors
     5.790102651  4.785442000 10.883966000     0.174339979  0.208967113  0.092746190


 
 k-points in units of 2pi/SCALE and weight: Automatic mesh                          
   0.00000000  0.00000000  0.00000000       0.125
   0.08716999  0.00000000  0.00000000       0.125
   0.00000000  0.10448356  0.00000000       0.125
   0.08716999  0.10448356  0.00000000       0.125
   0.00632927  0.00000000  0.04593914       0.125
   0.09349926  0.00000000  0.04593914       0.125
   0.00632927  0.10448356  0.04593914       0.125
   0.09349926  0.10448356  0.04593914       0.125
 
 k-points in reciprocal lattice and weights: Automatic mesh                          
   0.00000000  0.00000000  0.00000000       0.125
   0.50000000  0.00000000  0.00000000       0.125
   0.00000000  0.50000000  0.00000000       0.125
   0.50000000  0.50000000  0.00000000       0.125
  -0.00000000  0.00000000  0.50000000       0.125
   0.50000000  0.00000000  0.50000000       0.125
  -0.00000000  0.50000000  0.50000000       0.125
   0.50000000  0.50000000  0.50000000       0.125
 
 position of ions in fractional coordinates (direct lattice) 
   0.24699400  0.24850600  0.74623300
   0.24699400  0.75149400  0.24623300
   0.51485700  0.24497600  0.49879200
   0.51485700  0.75502400  0.99879200
   0.75373900  0.23127500  0.26486200
   0.75373900  0.76872500  0.76486200
   0.99045900  0.24137200  0.99652900
   0.99045900  0.75862800  0.49652900
   0.77857200  0.05847800  0.41725200
   0.77857200  0.94152200  0.91725200
   0.01370000  0.05755600  0.18278600
   0.01370000  0.94244400  0.68278600
   0.22224900  0.44944100  0.57080400
   0.22224900  0.55055900  0.07080400
   0.27923300  0.05174700  0.92203700
   0.27923300  0.94825300  0.42203700
   0.48187500  0.45353000  0.31584000
   0.48187500  0.54647000  0.81584000
   0.52253600  0.03560000  0.67416600
   0.52253600  0.96440000  0.17416600
   0.72235300  0.44302000  0.09109400
   0.72235300  0.55698000  0.59109400
   0.97343300  0.45650500  0.81960400
   0.97343300  0.54349500  0.31960400
 
 position of ions in cartesian coordinates  (Angst):
   1.41673758  1.18921105  7.92678339
   1.41673758  3.59623095  2.48480039
   2.95317805  1.17231844  5.02196067
   2.95317805  3.61312356 10.46394367
   4.32338585  1.10675310  2.28709394
   4.32338585  3.67868890  7.72907694
   5.68119260  1.15507171 10.06346069
   5.68119260  3.63037029  4.62147769
   4.46582593  0.27984308  3.92607682
   4.46582593  4.50559892  9.36805982
   0.07858209  0.27543090  1.97860995
   0.07858209  4.51001110  7.42059295
   1.27480226  2.15077384  6.03697528
   1.27480226  2.63466816  0.59499228
   1.60165787  0.24763227  9.81475073
   1.60165787  4.53780973  4.37276773
   2.76399597  2.17034151  3.05678191
   2.76399597  2.61510049  8.49876491
   2.99722417  0.17036174  6.92465687
   2.99722417  4.61508026  1.48267387
   4.14335830  2.12004651  0.42061226
   4.14335830  2.66539549  5.86259526
   5.58353284  2.18457820  8.15127009
   5.58353284  2.60086380  2.70928709
 


--------------------------------------------------------------------------------------------------------


 k-point  1 :   0.0000 0.0000 0.0000  plane waves:    5483
 k-point  2 :   0.5000 0.0000 0.0000  plane waves:    5426
 k-point  3 :   0.0000 0.5000 0.0000  plane waves:    5424
 k-point  4 :   0.5000 0.5000 0.0000  plane waves:    5432
 k-point  5 :  -0.0000 0.0000 0.5000  plane waves:    5422
 k-point  6 :   0.5000 0.0000 0.5000  plane waves:    5424
 k-point  7 :  -0.0000 0.5000 0.5000  plane waves:    5460
 k-point  8 :   0.5000 0.5000 0.5000  plane waves:    5428

 maximum and minimum number of plane-waves per node :      5483     5422

 maximum number of plane-waves:      5483
 maximum index in each direction: 
   IXMAX=    9   IYMAX=    7   IZMAX=   17
   IXMIN=   -9   IYMIN=   -8   IZMIN=  -18

 WARNING: aliasing errors must be expected set NGX to  38 to avoid them
 WARNING: aliasing errors must be expected set NGY to  32 to avoid them
 WARNING: aliasing errors must be expected set NGZ to  72 to avoid them
 aliasing errors are usually negligible using standard VASP settings
 and one can safely disregard these warnings

 serial   3D FFT for wavefunctions
 parallel 3D FFT for charge:
    minimum data exchange during FFTs selected (reduces bandwidth)


 total amount of memory used by VASP on root node   141667. kBytes
========================================================================

   base      :      30000. kBytes
   nonlr-proj:       4329. kBytes
   fftplans  :      10056. kBytes
   grid      :      20299. kBytes
   one-center:        373. kBytes
   wavefun   :      76610. kBytes
 
     INWAV:  cpu time    0.00: real time    0.00
 Broyden mixing: mesh for mixing (old mesh)
   NGX = 19   NGY = 15   NGZ = 35
  (NGX  = 56   NGY  = 48   NGZ  =108)
  gives a total of   9975 points

 initial charge density was supplied:
 charge density of overlapping atoms calculated
 number of electron     174.0000000 magnetization 
 keeping initial charge density in first step


--------------------------------------------------------------------------------------------------------


 Maximum index for non-local projection operator         1704
 Maximum index for augmentation-charges         4204 (set IRDMAX)


--------------------------------------------------------------------------------------------------------


 First call to EWALD:  gamma=   0.265
 Maximum number of real-space cells 3x 4x 2
 Maximum number of reciprocal cells 2x 2x 4

 FEWALD executed in parallel
    FEWALD:  cpu time    0.00: real time    0.00


----------------------------------------- Iteration    1(   1)  ---------------------------------------


    POTLOK:  cpu time    0.11: real time    0.21
    SETDIJ:  cpu time    0.03: real time    0.05
    EDDIAG:  cpu time    0.92: real time    1.66
  RMM-DIIS:  cpu time    2.42: real time    4.41
    ORTHCH:  cpu time    0.20: real time    0.30
       DOS:  cpu time    0.00: real time    0.00
    --------------------------------------------
      LOOP:  cpu time    3.67: real time    6.64

 eigenvalue-minimisations  :   832
 total energy-change (2. order) : 0.2127901E+04  (-0.6546021E+04)
 number of electron     174.0000000 magnetization 
 augmentation part      174.0000000 magnetization 

 Free energy of the ion-electron system (eV)
  ---------------------------------------------------
  alpha Z        PSCENC =       634.09262729
  Ewald energy   TEWEN  =    -10612.72848518
  -Hartree energ DENC   =     -4389.93247659
  -exchange      EXHF   =         0.00000000
  -V(xc)+E(xc)   XCENC  =       595.48706791
  PAW double counting   =     12680.77512887   -12817.41364524
  entropy T*S    EENTRO =        -0.08590439
  eigenvalues    EBANDS =      1186.43240379
  atomic energy  EATOM  =     14851.27451460
  ---------------------------------------------------
  free energy    TOTEN  =      2127.90123107 eV

  energy without entropy =     2127.98713546  energy(sigma->0) =     2127.92986586


--------------------------------------------------------------------------------------------------------




----------------------------------------- Iteration    1(   2)  ---------------------------------------


    EDDIAG:  cpu time    0.92: real time    1.70
  RMM-DIIS:  cpu time    2.41: real time    4.37
    ORTHCH:  cpu time    0.22: real time    0.44
       DOS:  cpu time    0.00: real time    0.00
    --------------------------------------------
      LOOP:  cpu time    3.55: real time    6.52

 eigenvalue-minimisations  :   832
 total energy-change (2. order) :-0.1464405E+04  (-0.1649758E+04)
 number of electron     174.0000000 magnetization 
 augmentation part      174.0000000 magnetization 

 Free energy of the ion-electron system (eV)
  ---------------------------------------------------
  alpha Z        PSCENC =       634.09262729
  Ewald energy   TEWEN  =    -10612.72848518
  -Hartree energ DENC   =     -4389.93247659
  -exchange      EXHF   =         0.00000000
  -V(xc)+E(xc)   XCENC  =       595.48706791
  PAW double counting   =     12680.77512887   -12817.41364524
  entropy T*S    EENTRO =        -0.01143436
  eigenvalues    EBANDS =      -278.04659309
  atomic energy  EATOM  =     14851.27451460
  ---------------------------------------------------
  free energy    TOTEN  =       663.49670421 eV

  energy without entropy =      663.50813858  energy(sigma->0) =      663.50051567


--------------------------------------------------------------------------------------------------------




----------------------------------------- Iteration    1(   3)  ---------------------------------------


    EDDIAG:  cpu time    0.90: real time    1.60
  RMM-DIIS:  cpu time    2.42: real time    3.75
    ORTHCH:  cpu time    0.21: real time    0.32
       DOS:  cpu time    0.00: real time    0.01
    --------------------------------------------
      LOOP:  cpu time    3.54: real time    5.69

 eigenvalue-minimisations  :   832
 total energy-change (2. order) :-0.4376680E+03  (-0.4343538E+03)
 number of electron     174.0000000 magnetization 
 augmentation part      174.0000000 magnetization 

 Free energy of the ion-electron system (eV)
  ---------------------------------------------------
  alpha Z        PSCENC =       634.09262729
  Ewald energy   TEWEN  =    -10612.72848518
  -Hartree energ DENC   =     -4389.93247659
  -exchange      EXHF   =         0.00000000
  -V(xc)+E(xc)   XCENC  =       595.48706791
  PAW double counting   =     12680.77512887   -12817.41364524
  entropy T*S    EENTRO =        -0.07828858
  eigenvalues    EBANDS =      -715.64769914
  atomic energy  EATOM  =     14851.27451460
  ---------------------------------------------------
  free energy    TOTEN  =       225.82874395 eV

  energy without entropy =      225.90703252  energy(sigma->0) =      225.85484014


--------------------------------------------------------------------------------------------------------




----------------------------------------- Iteration    1(   4)  ---------------------------------------


    EDDIAG:  cpu time    0.92: real time    1.73
  RMM-DIIS:  cpu time    2.43: real time    4.74
    ORTHCH:  cpu time    0.21: real time    0.43
       DOS:  cpu time    0.00: real time    0.00
    --------------------------------------------
      LOOP:  cpu time    3.57: real time    6.91

 eigenvalue-minimisations  :   832
 total energy-change (2. order) :-0.1841040E+03  (-0.1572368E+03)
 number of electron     174.0000000 magnetization 
 augmentation part      174.0000000 magnetization 

 Free energy of the ion-electron system (eV)
  ---------------------------------------------------
  alpha Z        PSCENC =       634.09262729
  Ewald energy   TEWEN  =    -10612.72848518
  -Hartree energ DENC   =     -4389.93247659
  -exchange      EXHF   =         0.00000000
  -V(xc)+E(xc)   XCENC  =       595.48706791
  PAW double counting   =     12680.77512887   -12817.41364524
  entropy T*S    EENTRO =         0.00643817
  eigenvalues    EBANDS =      -899.83640696
  atomic energy  EATOM  =     14851.27451460
  ---------------------------------------------------
  free energy    TOTEN  =        41.72476288 eV

  energy without entropy =       41.71832470  energy(sigma->0) =       41.72261682


--------------------------------------------------------------------------------------------------------




----------------------------------------- Iteration    1(   5)  ---------------------------------------


    EDDIAG:  cpu time    0.91: real time    1.77
  RMM-DIIS:  cpu time    2.39: real time    3.04
    ORTHCH:  cpu time    0.21: real time    0.21
       DOS:  cpu time    0.00: real time    0.00
    --------------------------------------------
      LOOP:  cpu time    3.51: real time    5.02

 eigenvalue-minimisations  :   832
 total energy-change (2. order) :-0.1044051E+03  (-0.8174805E+02)
 number of electron     174.0000000 magnetization 
 augmentation part      174.0000000 magnetization 

 Free energy of the ion-electron system (eV)
  ---------------------------------------------------
  alpha Z        PSCENC =       634.09262729
  Ewald energy   TEWEN  =    -10612.72848518
  -Hartree energ DENC   =     -4389.93247659
  -exchange      EXHF   =         0.00000000
  -V(xc)+E(xc)   XCENC  =       595.48706791
  PAW double counting   =     12680.77512887   -12817.41364524
  entropy T*S    EENTRO =         0.02685352
  eigenvalues    EBANDS =     -1004.26192400
  atomic energy  EATOM  =     14851.27451460
  ---------------------------------------------------
  free energy    TOTEN  =       -62.68033881 eV

  energy without entropy =      -62.70719234  energy(sigma->0) =      -62.68928999


--------------------------------------------------------------------------------------------------------




----------------------------------------- Iteration    1(   6)  ---------------------------------------


    EDDIAG:  cpu time    0.89: real time    0.89
  RMM-DIIS:  cpu time    2.38: real time    2.92
    ORTHCH:  cpu time    0.21: real time    0.42
       DOS:  cpu time    0.00: real time    0.01
    --------------------------------------------
      LOOP:  cpu time    3.48: real time    4.24

 eigenvalue-minimisations  :   832
 total energy-change (2. order) :-0.4760861E+02  (-0.3603722E+02)
 number of electron     174.0000000 magnetization 
 augmentation part      174.0000000 magnetization 

 Free energy of the ion-electron system (eV)
  ---------------------------------------------------
  alpha Z        PSCENC =       634.09262729
  Ewald energy   TEWEN  =    -10612.72848518
  -Hartree energ DENC   =     -4389.93247659
  -exchange      EXHF   =         0.00000000
  -V(xc)+E(xc)   XCENC  =       595.48706791
  PAW double counting   =     12680.77512887   -12817.41364524
  entropy T*S    EENTRO =         0.05368768
  eigenvalues    EBANDS =     -1051.89737285
  atomic energy  EATOM  =     14851.27451460
  ---------------------------------------------------
  free energy    TOTEN  =      -110.28895351 eV

  energy without entropy =     -110.34264119  energy(sigma->0) =     -110.30684940


--------------------------------------------------------------------------------------------------------




----------------------------------------- Iteration    1(   7)  ---------------------------------------


    EDDIAG:  cpu time    0.91: real time    1.49
  RMM-DIIS:  cpu time    2.42: real time    3.99
    ORTHCH:  cpu time    0.21: real time    0.28
       DOS:  cpu time    0.00: real time    0.00
    --------------------------------------------
      LOOP:  cpu time    3.54: real time    5.76

 eigenvalue-minimisations  :   832
 total energy-change (2. order) :-0.2472526E+02  (-0.1988417E+02)
 number of electron     174.0000000 magnetization 
 augmentation part      174.0000000 magnetization 

 Free energy of the ion-electron system (eV)
  ---------------------------------------------------
  alpha Z        PSCENC =       634.09262729
  Ewald energy   TEWEN  =    -10612.72848518
  -Hartree energ DENC   =     -4389.93247659
  -exchange      EXHF   =         0.00000000
  -V(xc)+E(xc)   XCENC  =       595.48706791
  PAW double counting   =     12680.77512887   -12817.41364524
  entropy T*S    EENTRO =         0.11248218
  eigenvalues    EBANDS =     -1076.68142484
  atomic energy  EATOM  =     14851.27451460
  ---------------------------------------------------
  free energy    TOTEN  =      -135.01421099 eV

  energy without entropy =     -135.12669318  energy(sigma->0) =     -135.05170505


--------------------------------------------------------------------------------------------------------




----------------------------------------- Iteration    1(   8)  ---------------------------------------


    EDDIAG:  cpu time    0.89: real time    1.25
  RMM-DIIS:  cpu time    2.25: real time    3.76
    ORTHCH:  cpu time    0.21: real time    0.42
       DOS:  cpu time    0.00: real time    0.00
    --------------------------------------------
      LOOP:  cpu time    3.36: real time    5.43

 eigenvalue-minimisations  :   832
 total energy-change (2. order) :-0.9972696E+01  (-0.8100282E+01)
 number of electron     174.0000000 magnetization 
 augmentation part      174.0000000 magnetization 

 Free energy of the ion-electron system (eV)
  ---------------------------------------------------
  alpha Z        PSCENC =       634.09262729
  Ewald energy   TEWEN  =    -10612.72848518
  -Hartree energ DENC   =     -4389.93247659
  -exchange      EXHF   =         0.00000000
  -V(xc)+E(xc)   XCENC  =       595.48706791
  PAW double counting   =     12680.77512887   -12817.41364524
  entropy T*S    EENTRO =         0.14473992
  eigenvalues    EBANDS =     -1086.68637898
  atomic energy  EATOM  =     14851.27451460
  ---------------------------------------------------
  free energy    TOTEN  =      -144.98690740 eV

  energy without entropy =     -145.13164732  energy(sigma->0) =     -145.03515404


--------------------------------------------------------------------------------------------------------




----------------------------------------- Iteration    1(   9)  ---------------------------------------


    EDDIAG:  cpu time    0.89: real time    1.27
  RMM-DIIS:  cpu time    6.96: real time   13.46
    ORTHCH:  cpu time    0.20: real time    0.40
       DOS:  cpu time    0.00: real time    0.00
    --------------------------------------------
      LOOP:  cpu time    8.06: real time   15.14

 eigenvalue-minimisations  :  2653
 total energy-change (2. order) :-0.9981854E+01  (-0.9139325E+01)
 number of electron     174.0000000 magnetization 
 augmentation part      174.0000000 magnetization 

 Free energy of the ion-electron system (eV)
  ---------------------------------------------------
  alpha Z        PSCENC =       634.09262729
  Ewald energy   TEWEN  =    -10612.72848518
  -Hartree energ DENC   =     -4389.93247659
  -exchange      EXHF   =         0.00000000
  -V(xc)+E(xc)   XCENC  =       595.48706791
  PAW double counting   =     12680.77512887   -12817.41364524
  entropy T*S    EENTRO =         0.17317421
  eigenvalues    EBANDS =     -1096.69666744
  atomic energy  EATOM  =     14851.27451460
  ---------------------------------------------------
  free energy    TOTEN  =      -154.96876157 eV

  energy without entropy =     -155.14193578  energy(sigma->0) =     -155.02648631


--------------------------------------------------------------------------------------------------------




----------------------------------------- Iteration    1(  10)  ---------------------------------------


    EDDIAG:  cpu time    0.89: real time    1.51
  RMM-DIIS:  cpu time    6.61: real time   12.16
    ORTHCH:  cpu time    0.20: real time    0.41
       DOS:  cpu time    0.00: real time    0.00
    --------------------------------------------
      LOOP:  cpu time    7.70: real time   14.08

 eigenvalue-minimisations  :  2640
 total energy-change (2. order) :-0.2116737E+00  (-0.4384444E+00)
 number of electron     174.0000000 magnetization 
 augmentation part      174.0000000 magnetization 

 Free energy of the ion-electron system (eV)
  ---------------------------------------------------
  alpha Z        PSCENC =       634.09262729
  Ewald energy   TEWEN  =    -10612.72848518
  -Hartree energ DENC   =     -4389.93247659
  -exchange      EXHF   =         0.00000000
  -V(xc)+E(xc)   XCENC  =       595.48706791
  PAW double counting   =     12680.77512887   -12817.41364524
  entropy T*S    EENTRO =         0.16450836
  eigenvalues    EBANDS =     -1096.89967533
  atomic energy  EATOM  =     14851.27451460
  ---------------------------------------------------
  free energy    TOTEN  =      -155.18043530 eV

  energy without entropy =     -155.34494366  energy(sigma->0) =     -155.23527142


--------------------------------------------------------------------------------------------------------




----------------------------------------- Iteration    1(  11)  ---------------------------------------


    EDDIAG:  cpu time    0.87: real time    1.56
  RMM-DIIS:  cpu time    5.86: real time   10.49
    ORTHCH:  cpu time    0.19: real time    0.34
       DOS:  cpu time    0.00: real time    0.01
    --------------------------------------------
      LOOP:  cpu time    6.92: real time   12.40

 eigenvalue-minimisations  :  2418
 total energy-change (2. order) :-0.1928822E+00  (-0.1695629E+00)
 number of electron     174.0000000 magnetization 
 augmentation part      174.0000000 magnetization 

 Free energy of the ion-electron system (eV)
  ---------------------------------------------------
  alpha Z        PSCENC =       634.09262729
  Ewald energy   TEWEN  =    -10612.72848518
  -Hartree energ DENC   =     -4389.93247659
  -exchange      EXHF   =         0.00000000
  -V(xc)+E(xc)   XCENC  =       595.48706791
  PAW double counting   =     12680.77512887   -12817.41364524
  entropy T*S    EENTRO =         0.16132461
  eigenvalues    EBANDS =     -1097.08937382
  atomic energy  EATOM  =     14851.27451460
  ---------------------------------------------------
  free energy    TOTEN  =      -155.37331754 eV

  energy without entropy =     -155.53464215  energy(sigma->0) =     -155.42709241


--------------------------------------------------------------------------------------------------------




----------------------------------------- Iteration    1(  12)  ---------------------------------------


    EDDIAG:  cpu time    0.87: real time    1.69
  RMM-DIIS:  cpu time    4.59: real time    6.79
    ORTHCH:  cpu time    0.20: real time    0.20
       DOS:  cpu time    0.00: real time    0.00
    CHARGE:  cpu time    0.33: real time    0.33
    MIXING:  cpu time    0.00: real time    0.00
    --------------------------------------------
      LOOP:  cpu time    6.00: real time    9.01

 eigenvalue-minimisations  :  1964
 total energy-change (2. order) :-0.8637978E-01  (-0.7784602E-01)
 number of electron     173.9999913 magnetization 
 augmentation part       51.0132305 magnetization 

 Broyden mixing:
  rms(total) = 0.38338E+01    rms(broyden)= 0.38193E+01
  rms(prec ) = 0.46297E+01
  weight for this iteration     100.00

 Free energy of the ion-electron system (eV)
  ---------------------------------------------------
  alpha Z        PSCENC =       634.09262729
  Ewald energy   TEWEN  =    -10612.72848518
  -Hartree energ DENC   =     -4389.93247659
  -exchange      EXHF   =         0.00000000
  -V(xc)+E(xc)   XCENC  =       595.48706791
  PAW double counting   =     12680.77512887   -12817.41364524
  entropy T*S    EENTRO =         0.15979553
  eigenvalues    EBANDS =     -1097.17422451
  atomic energy  EATOM  =     14851.27451460
  ---------------------------------------------------
  free energy    TOTEN  =      -155.45969732 eV

  energy without entropy =     -155.61949285  energy(sigma->0) =     -155.51296250


--------------------------------------------------------------------------------------------------------




----------------------------------------- Iteration    1(  13)  ---------------------------------------


    POTLOK:  cpu time    0.10: real time    0.10
    SETDIJ:  cpu time    0.03: real time    0.03
    EDDIAG:  cpu time    0.85: real time    0.85
  RMM-DIIS:  cpu time    4.78: real time    8.70
    ORTHCH:  cpu time    0.19: real time    0.25
       DOS:  cpu time    0.00: real time    0.01
    CHARGE:  cpu time    0.33: real time    0.66
    MIXING:  cpu time    0.00: real time    0.00
    --------------------------------------------
      LOOP:  cpu time    6.29: real time   10.60

 eigenvalue-minimisations  :  2031
 total energy-change (2. order) : 0.9470729E+01  (-0.1889666E+02)
 number of electron     173.9999876 magnetization 
 augmentation part       56.3426412 magnetization 

 Broyden mixing:
  rms(total) = 0.59620E+01    rms(broyden)= 0.59584E+01
  rms(prec ) = 0.74554E+01
  weight for this iteration     100.00

 eigenvalues of (default mixing * dielectric matrix)
  average eigenvalue GAMMA=   0.3108
  0.3108

 Free energy of the ion-electron system (eV)
  ---------------------------------------------------
  alpha Z        PSCENC =       634.09262729
  Ewald energy   TEWEN  =    -10612.72848518
  -Hartree energ DENC   =     -4473.68123171
  -exchange      EXHF   =         0.00000000
  -V(xc)+E(xc)   XCENC  =       604.70429272
  PAW double counting   =     13502.34939488   -13624.34539327
  entropy T*S    EENTRO =         0.04044702
  eigenvalues    EBANDS =     -1027.69513449
  atomic energy  EATOM  =     14851.27451460
  ---------------------------------------------------
  free energy    TOTEN  =      -145.98896813 eV

  energy without entropy =     -146.02941515  energy(sigma->0) =     -146.00245047


--------------------------------------------------------------------------------------------------------




----------------------------------------- Iteration    1(  14)  ---------------------------------------


    POTLOK:  cpu time    0.10: real time    0.20
    SETDIJ:  cpu time    0.03: real time    0.05
    EDDIAG:  cpu time    0.87: real time    1.68
  RMM-DIIS:  cpu time    4.23: real time    7.56
    ORTHCH:  cpu time    0.20: real time    0.39
       DOS:  cpu time    0.00: real time    0.01
    CHARGE:  cpu time    0.33: real time    0.53
    MIXING:  cpu time    0.00: real time    0.00
    --------------------------------------------
      LOOP:  cpu time    5.75: real time   10.42

 eigenvalue-minimisations  :  1809
 total energy-change (2. order) :-0.3855043E+02  (-0.4073490E+01)
 number of electron     173.9999849 magnetization 
 augmentation part       53.2422006 magnetization 

 Broyden mixing:
  rms(total) = 0.92724E+01    rms(broyden)= 0.92708E+01
  rms(prec ) = 0.12227E+02
  weight for this iteration     100.00

 eigenvalues of (default mixing * dielectric matrix)
  average eigenvalue GAMMA=   0.2384
  0.3828  0.0940

 Free energy of the ion-electron system (eV)
  ---------------------------------------------------
  alpha Z        PSCENC =       634.09262729
  Ewald energy   TEWEN  =    -10612.72848518
  -Hartree energ DENC   =     -4474.00689665
  -exchange      EXHF   =         0.00000000
  -V(xc)+E(xc)   XCENC  =       603.85021855
  PAW double counting   =     13727.90002015   -13857.47734494
  entropy T*S    EENTRO =         0.03298233
  eigenvalues    EBANDS =     -1057.47703000
  atomic energy  EATOM  =     14851.27451460
  ---------------------------------------------------
  free energy    TOTEN  =      -184.53939384 eV

  energy without entropy =     -184.57237618  energy(sigma->0) =     -184.55038796


--------------------------------------------------------------------------------------------------------




----------------------------------------- Iteration    1(  15)  ---------------------------------------


    POTLOK:  cpu time    0.10: real time    0.20
    SETDIJ:  cpu time    0.03: real time    0.06
    EDDIAG:  cpu time    0.87: real time    1.67
  RMM-DIIS:  cpu time    4.54: real time    8.15
    ORTHCH:  cpu time    0.19: real time    0.39
       DOS:  cpu time    0.00: real time    0.00
    CHARGE:  cpu time    0.33: real time    0.64
    MIXING:  cpu time    0.00: real time    0.00
    --------------------------------------------
      LOOP:  cpu time    6.06: real time   11.12

 eigenvalue-minimisations  :  1954
 total energy-change (2. order) : 0.2481017E+02  (-0.1625100E+01)
 number of electron     173.9999861 magnetization 
 augmentation part       52.9020344 magnetization 

 Broyden mixing:
  rms(total) = 0.87931E+01    rms(broyden)= 0.87916E+01
  rms(prec ) = 0.12257E+02
  weight for this iteration     100.00

 eigenvalues of (default mixing * dielectric matrix)
  average eigenvalue GAMMA=   0.1837
  0.3828  0.0842  0.0842

 Free energy of the ion-electron system (eV)
  ---------------------------------------------------
  alpha Z        PSCENC =       634.09262729
  Ewald energy   TEWEN  =    -10612.72848518
  -Hartree energ DENC   =     -4477.29516776
  -exchange      EXHF   =         0.00000000
  -V(xc)+E(xc)   XCENC  =       603.81165196
  PAW double counting   =     13882.77300025   -14016.89708870
  entropy T*S    EENTRO =        -0.07050249
  eigenvalues    EBANDS =     -1024.68977834
  atomic energy  EATOM  =     14851.27451460
  ---------------------------------------------------
  free energy    TOTEN  =      -159.72922836 eV

  energy without entropy =     -159.65872587  energy(sigma->0) =     -159.70572753


--------------------------------------------------------------------------------------------------------




----------------------------------------- Iteration    1(  16)  ---------------------------------------


    POTLOK:  cpu time    0.10: real time    0.10
    SETDIJ:  cpu time    0.03: real time    0.03
    EDDIAG:  cpu time    0.87: real time    1.39
  RMM-DIIS:  cpu time    4.49: real time    8.49
    ORTHCH:  cpu time    0.19: real time    0.38
       DOS:  cpu time    0.00: real time    0.01
    CHARGE:  cpu time    0.33: real time    0.67
    MIXING:  cpu time    0.00: real time    0.00
    --------------------------------------------
      LOOP:  cpu time    6.02: real time   11.08

 eigenvalue-minimisations  :  1881
 total energy-change (2. order) : 0.2043514E+02  (-0.5933142E+00)
 number of electron     173.9999882 magnetization 
 augmentation part       52.7752165 magnetization 

 Broyden mixing:
  rms(total) = 0.52315E+01    rms(broyden)= 0.52273E+01
  rms(prec ) = 0.73977E+01
  weight for this iteration     100.00

 eigenvalues of (default mixing * dielectric matrix)
  average eigenvalue GAMMA=   0.2135
  0.3033  0.2518  0.2518  0.0473

 Free energy of the ion-electron system (eV)
  ---------------------------------------------------
  alpha Z        PSCENC =       634.09262729
  Ewald energy   TEWEN  =    -10612.72848518
  -Hartree energ DENC   =     -4476.59942181
  -exchange      EXHF   =         0.00000000
  -V(xc)+E(xc)   XCENC  =       603.86466496
  PAW double counting   =     13930.41342799   -14064.19520141
  entropy T*S    EENTRO =        -0.03122058
  eigenvalues    EBANDS =     -1005.38499524
  atomic energy  EATOM  =     14851.27451460
  ---------------------------------------------------
  free energy    TOTEN  =      -139.29408938 eV

  energy without entropy =     -139.26286880  energy(sigma->0) =     -139.28368252


--------------------------------------------------------------------------------------------------------




----------------------------------------- Iteration    1(  17)  ---------------------------------------


    POTLOK:  cpu time    0.10: real time    0.19
    SETDIJ:  cpu time    0.03: real time    0.06
    EDDIAG:  cpu time    0.86: real time    1.60
  RMM-DIIS:  cpu time    4.09: real time    7.45
    ORTHCH:  cpu time    0.19: real time    0.30
       DOS:  cpu time    0.00: real time    0.01
    CHARGE:  cpu time    0.33: real time    0.64
    MIXING:  cpu time    0.00: real time    0.01
    --------------------------------------------
      LOOP:  cpu time    5.60: real time   10.26

 eigenvalue-minimisations  :  1826
 total energy-change (2. order) :-0.1150104E+02  (-0.1070353E+01)
 number of electron     173.9999877 magnetization 
 augmentation part       52.8148436 magnetization 

 Broyden mixing:
  rms(total) = 0.74276E+01    rms(broyden)= 0.74254E+01
  rms(prec ) = 0.10398E+02
  weight for this iteration     100.00

 eigenvalues of (default mixing * dielectric matrix)
  average eigenvalue GAMMA=   0.2689
  0.5314  0.5314  0.1759  0.0529  0.0529

 Free energy of the ion-electron system (eV)
  ---------------------------------------------------
  alpha Z        PSCENC =       634.09262729
  Ewald energy   TEWEN  =    -10612.72848518
  -Hartree energ DENC   =     -4475.27975401
  -exchange      EXHF   =         0.00000000
  -V(xc)+E(xc)   XCENC  =       603.74906604
  PAW double counting   =     13981.48918778   -14117.00928098
  entropy T*S    EENTRO =        -0.03332594
  eigenvalues    EBANDS =     -1016.34968007
  atomic energy  EATOM  =     14851.27451460
  ---------------------------------------------------
  free energy    TOTEN  =      -150.79513047 eV

  energy without entropy =     -150.76180453  energy(sigma->0) =     -150.78402183


--------------------------------------------------------------------------------------------------------




----------------------------------------- Iteration    1(  18)  ---------------------------------------


    POTLOK:  cpu time    0.09: real time    0.19
    SETDIJ:  cpu time    0.03: real time    0.05
    EDDIAG:  cpu time    0.86: real time    1.39
  RMM-DIIS:  cpu time    4.12: real time    7.16
    ORTHCH:  cpu time    0.18: real time    0.37
       DOS:  cpu time    0.00: real time    0.00
    CHARGE:  cpu time    0.35: real time    0.69
    MIXING:  cpu time    0.00: real time    0.01
    --------------------------------------------
      LOOP:  cpu time    5.65: real time    9.87

 eigenvalue-minimisations  :  1928
 total energy-change (2. order) :-0.1732030E+02  (-0.1387836E+01)
 number of electron     173.9999940 magnetization 
 augmentation part       52.8462870 magnetization 

 Broyden mixing:
  rms(total) = 0.81756E+01    rms(broyden)= 0.81740E+01
  rms(prec ) = 0.11683E+02
  weight for this iteration     100.00

 eigenvalues of (default mixing * dielectric matrix)
  average eigenvalue GAMMA=   0.2489
  0.5847  0.5847  0.1543  0.0612  0.0612  0.0474

 Free energy of the ion-electron system (eV)
  ---------------------------------------------------
  alpha Z        PSCENC =       634.09262729
  Ewald energy   TEWEN  =    -10612.72848518
  -Hartree energ DENC   =     -4474.98282860
  -exchange      EXHF   =         0.00000000
  -V(xc)+E(xc)   XCENC  =       603.71099946
  PAW double counting   =     14135.63632591   -14271.76353923
  entropy T*S    EENTRO =        -0.03050873
  eigenvalues    EBANDS =     -1033.32453742
  atomic energy  EATOM  =     14851.27451460
  ---------------------------------------------------
  free energy    TOTEN  =      -168.11543189 eV

  energy without entropy =     -168.08492316  energy(sigma->0) =     -168.10526232


--------------------------------------------------------------------------------------------------------




----------------------------------------- Iteration    1(  19)  ---------------------------------------


    POTLOK:  cpu time    0.09: real time    0.16
    SETDIJ:  cpu time    0.02: real time    0.03
    EDDIAG:  cpu time    0.85: real time    1.65
  RMM-DIIS:  cpu time    3.77: real time    7.14
    ORTHCH:  cpu time    0.17: real time    0.17
       DOS:  cpu time    0.00: real time    0.00
    CHARGE:  cpu time    0.35: real time    0.64
    MIXING:  cpu time    0.01: real time    0.02
    --------------------------------------------
      LOOP:  cpu time    5.27: real time    9.82

 eigenvalue-minimisations  :  1909
 total energy-change (2. order) : 0.9340606E+01  (-0.6866759E+00)
 number of electron     173.9999939 magnetization 
 augmentation part       53.0221770 magnetization 

 Broyden mixing:
  rms(total) = 0.86661E+01    rms(broyden)= 0.86638E+01
  rms(prec ) = 0.12474E+02
  weight for this iteration     100.00

 eigenvalues of (default mixing * dielectric matrix)
  average eigenvalue GAMMA=   0.2427
  0.7239  0.5849  0.1078  0.0897  0.0897  0.0516  0.0516

 Free energy of the ion-electron system (eV)
  ---------------------------------------------------
  alpha Z        PSCENC =       634.09262729
  Ewald energy   TEWEN  =    -10612.72848518
  -Hartree energ DENC   =     -4474.23483900
  -exchange      EXHF   =         0.00000000
  -V(xc)+E(xc)   XCENC  =       603.86993742
  PAW double counting   =     14254.48003968   -14391.53685683
  entropy T*S    EENTRO =         0.04929969
  eigenvalues    EBANDS =     -1024.04106357
  atomic energy  EATOM  =     14851.27451460
  ---------------------------------------------------
  free energy    TOTEN  =      -158.77482591 eV

  energy without entropy =     -158.82412559  energy(sigma->0) =     -158.79125913


--------------------------------------------------------------------------------------------------------




----------------------------------------- Iteration    1(  20)  ---------------------------------------


    POTLOK:  cpu time    0.09: real time    0.18
    SETDIJ:  cpu time    0.03: real time    0.05
    EDDIAG:  cpu time    0.85: real time    1.71
  RMM-DIIS:  cpu time    3.62: real time    6.14
    ORTHCH:  cpu time    0.18: real time    0.35
       DOS:  cpu time    0.00: real time    0.00
    CHARGE:  cpu time    0.35: real time    0.52
    MIXING:  cpu time    0.00: real time    0.02
    --------------------------------------------
      LOOP:  cpu time    5.13: real time    8.97

 eigenvalue-minimisations  :  1892
 total energy-change (2. order) : 0.1018280E+02  (-0.3455024E+00)
 number of electron     173.9999924 magnetization 
 augmentation part       53.0834200 magnetization 

 Broyden mixing:
  rms(total) = 0.72341E+01    rms(broyden)= 0.72328E+01
  rms(prec ) = 0.10403E+02
  weight for this iteration     100.00

 eigenvalues of (default mixing * dielectric matrix)
  average eigenvalue GAMMA=   0.2747
  1.1045  0.5369  0.1461  0.1461  0.1143  0.0528  0.0528  0.0444

 Free energy of the ion-electron system (eV)
  ---------------------------------------------------
  alpha Z        PSCENC =       634.09262729
  Ewald energy   TEWEN  =    -10612.72848518
  -Hartree energ DENC   =     -4474.75584609
  -exchange      EXHF   =         0.00000000
  -V(xc)+E(xc)   XCENC  =       604.09313140
  PAW double counting   =     14347.09028162   -14483.95391597
  entropy T*S    EENTRO =        -0.00168894
  eigenvalues    EBANDS =     -1013.70264886
  atomic energy  EATOM  =     14851.27451460
  ---------------------------------------------------
  free energy    TOTEN  =      -148.59203013 eV

  energy without entropy =     -148.59034119  energy(sigma->0) =     -148.59146715


--------------------------------------------------------------------------------------------------------




----------------------------------------- Iteration    1(  21)  ---------------------------------------


    POTLOK:  cpu time    0.09: real time    0.18
    SETDIJ:  cpu time    0.02: real time    0.06
    EDDIAG:  cpu time    0.85: real time    1.64
  RMM-DIIS:  cpu time    3.60: real time    5.68
    ORTHCH:  cpu time    0.18: real time    0.36
       DOS:  cpu time    0.00: real time    0.00
    CHARGE:  cpu time    0.35: real time    0.70
    MIXING:  cpu time    0.01: real time    0.01
    --------------------------------------------
      LOOP:  cpu time    5.09: real time    8.62

 eigenvalue-minimisations  :  1987
 total energy-change (2. order) : 0.5347009E+01  (-0.2977429E+00)
 number of electron     173.9999915 magnetization 
 augmentation part       53.2569699 magnetization 

 Broyden mixing:
  rms(total) = 0.61988E+01    rms(broyden)= 0.61972E+01
  rms(prec ) = 0.91012E+01
  weight for this iteration     100.00

 eigenvalues of (default mixing * dielectric matrix)
  average eigenvalue GAMMA=   0.2967
  1.3054  0.5896  0.1895  0.1895  0.1825  0.0582  0.0582  0.0488  0.0488

 Free energy of the ion-electron system (eV)
  ---------------------------------------------------
  alpha Z        PSCENC =       634.09262729
  Ewald energy   TEWEN  =    -10612.72848518
  -Hartree energ DENC   =     -4476.45197181
  -exchange      EXHF   =         0.00000000
  -V(xc)+E(xc)   XCENC  =       604.41443937
  PAW double counting   =     14496.68495706   -14634.93163471
  entropy T*S    EENTRO =        -0.01366918
  eigenvalues    EBANDS =     -1005.58579820
  atomic energy  EATOM  =     14851.27451460
  ---------------------------------------------------
  free energy    TOTEN  =      -143.24502076 eV

  energy without entropy =     -143.23135158  energy(sigma->0) =     -143.24046436


--------------------------------------------------------------------------------------------------------




----------------------------------------- Iteration    1(  22)  ---------------------------------------


    POTLOK:  cpu time    0.09: real time    0.18
    SETDIJ:  cpu time    0.02: real time    0.06
    EDDIAG:  cpu time    0.83: real time    1.66
  RMM-DIIS:  cpu time    3.16: real time    5.74
    ORTHCH:  cpu time    0.18: real time    0.37
       DOS:  cpu time    0.00: real time    0.00
    CHARGE:  cpu time    0.35: real time    0.65
    MIXING:  cpu time    0.01: real time    0.01
    --------------------------------------------
      LOOP:  cpu time    4.64: real time    8.66

 eigenvalue-minimisations  :  1770
 total energy-change (2. order) :-0.7839025E+01  (-0.5100529E+00)
 number of electron     173.9999882 magnetization 
 augmentation part       53.4374018 magnetization 

 Broyden mixing:
  rms(total) = 0.72840E+01    rms(broyden)= 0.72828E+01
  rms(prec ) = 0.10579E+02
  weight for this iteration     100.00

 eigenvalues of (default mixing * dielectric matrix)
  average eigenvalue GAMMA=   0.3157
  1.0717  1.0717  0.3335  0.1963  0.1963  0.0873  0.0519  0.0519  0.0481  0.0481

 Free energy of the ion-electron system (eV)
  ---------------------------------------------------
  alpha Z        PSCENC =       634.09262729
  Ewald energy   TEWEN  =    -10612.72848518
  -Hartree energ DENC   =     -4475.95655616
  -exchange      EXHF   =         0.00000000
  -V(xc)+E(xc)   XCENC  =       604.49666301
  PAW double counting   =     14616.09938397   -14755.16942868
  entropy T*S    EENTRO =        -0.13281478
  eigenvalues    EBANDS =     -1013.05994973
  atomic energy  EATOM  =     14851.27451460
  ---------------------------------------------------
  free energy    TOTEN  =      -151.08404565 eV

  energy without entropy =     -150.95123087  energy(sigma->0) =     -151.03977406


--------------------------------------------------------------------------------------------------------




----------------------------------------- Iteration    1(  23)  ---------------------------------------


    POTLOK:  cpu time    0.09: real time    0.10
    SETDIJ:  cpu time    0.03: real time    0.06
    EDDIAG:  cpu time    0.83: real time    1.60
  RMM-DIIS:  cpu time    4.13: real time    7.77
    ORTHCH:  cpu time    0.19: real time    0.23
       DOS:  cpu time    0.00: real time    0.00
    CHARGE:  cpu time    0.33: real time    0.66
    MIXING:  cpu time    0.01: real time    0.02
    --------------------------------------------
      LOOP:  cpu time    5.60: real time   10.43

 eigenvalue-minimisations  :  2031
 total energy-change (2. order) : 0.1264306E+02  (-0.5665125E+00)
 number of electron     173.9999887 magnetization 
 augmentation part       53.0542880 magnetization 

 Broyden mixing:
  rms(total) = 0.57691E+01    rms(broyden)= 0.57673E+01
  rms(prec ) = 0.88351E+01
  weight for this iteration     100.00

 eigenvalues of (default mixing * dielectric matrix)
  average eigenvalue GAMMA=   0.2958
  1.0896  1.0896  0.3335  0.1964  0.1964  0.0888  0.0609  0.0497  0.0497  0.0509
  0.0482

 Free energy of the ion-electron system (eV)
  ---------------------------------------------------
  alpha Z        PSCENC =       634.09262729
  Ewald energy   TEWEN  =    -10612.72848518
  -Hartree energ DENC   =     -4470.19820469
  -exchange      EXHF   =         0.00000000
  -V(xc)+E(xc)   XCENC  =       604.11528493
  PAW double counting   =     14653.45869426   -14793.14625377
  entropy T*S    EENTRO =         0.01996801
  eigenvalues    EBANDS =     -1005.32912828
  atomic energy  EATOM  =     14851.27451460
  ---------------------------------------------------
  free energy    TOTEN  =      -138.44098282 eV

  energy without entropy =     -138.46095083  energy(sigma->0) =     -138.44763882


--------------------------------------------------------------------------------------------------------




----------------------------------------- Iteration    1(  24)  ---------------------------------------


    POTLOK:  cpu time    0.10: real time    0.20
    SETDIJ:  cpu time    0.03: real time    0.05
    EDDIAG:  cpu time    0.85: real time    1.42
  RMM-DIIS:  cpu time    4.05: real time    7.35
    ORTHCH:  cpu time    0.19: real time    0.30
       DOS:  cpu time    0.00: real time    0.00
    CHARGE:  cpu time    0.33: real time    0.33
    MIXING:  cpu time    0.01: real time    0.01
    --------------------------------------------
      LOOP:  cpu time    5.55: real time    9.65

 eigenvalue-minimisations  :  1828
 total energy-change (2. order) : 0.4492280E+01  (-0.1023989E+00)
 number of electron     173.9999911 magnetization 
 augmentation part       53.0718978 magnetization 

 Broyden mixing:
  rms(total) = 0.30389E+01    rms(broyden)= 0.30338E+01
  rms(prec ) = 0.43892E+01
  weight for this iteration     100.00

 eigenvalues of (default mixing * dielectric matrix)
  average eigenvalue GAMMA=   0.3281
  1.7675  0.5090  0.5090  0.4379  0.1956  0.1956  0.0867  0.0518  0.0518  0.0479
  0.0479  0.0363

 Free energy of the ion-electron system (eV)
  ---------------------------------------------------
  alpha Z        PSCENC =       634.09262729
  Ewald energy   TEWEN  =    -10612.72848518
  -Hartree energ DENC   =     -4470.18718269
  -exchange      EXHF   =         0.00000000
  -V(xc)+E(xc)   XCENC  =       604.11663550
  PAW double counting   =     14673.83629289   -14814.21666717
  entropy T*S    EENTRO =        -0.03564678
  eigenvalues    EBANDS =     -1000.10079099
  atomic energy  EATOM  =     14851.27451460
  ---------------------------------------------------
  free energy    TOTEN  =      -133.94870253 eV

  energy without entropy =     -133.91305575  energy(sigma->0) =     -133.93682027


--------------------------------------------------------------------------------------------------------




----------------------------------------- Iteration    1(  25)  ---------------------------------------


    POTLOK:  cpu time    0.10: real time    0.10
    SETDIJ:  cpu time    0.03: real time    0.06
    EDDIAG:  cpu time    0.85: real time    1.57
  RMM-DIIS:  cpu time    4.43: real time    8.29
    ORTHCH:  cpu time    0.19: real time    0.38
       DOS:  cpu time    0.00: real time    0.00
    CHARGE:  cpu time    0.33: real time    0.67
    MIXING:  cpu time    0.01: real time    0.02
    --------------------------------------------
      LOOP:  cpu time    5.94: real time   11.09

 eigenvalue-minimisations  :  2027
 total energy-change (2. order) : 0.1659381E+01  (-0.6403788E-01)
 number of electron     173.9999896 magnetization 
 augmentation part       53.2170650 magnetization 

 Broyden mixing:
  rms(total) = 0.11381E+01    rms(broyden)= 0.11331E+01
  rms(prec ) = 0.15072E+01
  weight for this iteration     100.00

 eigenvalues of (default mixing * dielectric matrix)
  average eigenvalue GAMMA=   0.3437
  1.8878  0.5310  0.5310  0.5208  0.2864  0.1950  0.1950  0.0864  0.0517  0.0517
  0.0479  0.0479  0.0361

 Free energy of the ion-electron system (eV)
  ---------------------------------------------------
  alpha Z        PSCENC =       634.09262729
  Ewald energy   TEWEN  =    -10612.72848518
  -Hartree energ DENC   =     -4468.15247769
  -exchange      EXHF   =         0.00000000
  -V(xc)+E(xc)   XCENC  =       604.19107210
  PAW double counting   =     14825.18160088   -14967.27635890
  entropy T*S    EENTRO =         0.12541817
  eigenvalues    EBANDS =      -998.99723232
  atomic energy  EATOM  =     14851.27451460
  ---------------------------------------------------
  free energy    TOTEN  =      -132.28932105 eV

  energy without entropy =     -132.41473922  energy(sigma->0) =     -132.33112710


--------------------------------------------------------------------------------------------------------




----------------------------------------- Iteration    1(  26)  ---------------------------------------


    POTLOK:  cpu time    0.10: real time    0.20
    SETDIJ:  cpu time    0.03: real time    0.05
    EDDIAG:  cpu time    0.85: real time    1.72
  RMM-DIIS:  cpu time    4.14: real time    7.77
    ORTHCH:  cpu time    0.19: real time    0.37
       DOS:  cpu time    0.00: real time    0.01
    CHARGE:  cpu time    0.33: real time    0.46
    MIXING:  cpu time    0.01: real time    0.01
    --------------------------------------------
      LOOP:  cpu time    5.65: real time   10.59

 eigenvalue-minimisations  :  1925
 total energy-change (2. order) : 0.4036693E+00  (-0.1317666E-01)
 number of electron     173.9999907 magnetization 
 augmentation part       53.1446109 magnetization 

 Broyden mixing:
  rms(total) = 0.10470E+01    rms(broyden)= 0.10461E+01
  rms(prec ) = 0.13976E+01
  weight for this iteration     100.00

 eigenvalues of (default mixing * dielectric matrix)
  average eigenvalue GAMMA=   0.3575
  1.8922  0.6068  0.6068  0.5252  0.3313  0.3313  0.1948  0.1948  0.0865  0.0517
  0.0517  0.0479  0.0479  0.0360

 Free energy of the ion-electron system (eV)
  ---------------------------------------------------
  alpha Z        PSCENC =       634.09262729
  Ewald energy   TEWEN  =    -10612.72848518
  -Hartree energ DENC   =     -4467.14681698
  -exchange      EXHF   =         0.00000000
  -V(xc)+E(xc)   XCENC  =       604.17225352
  PAW double counting   =     14854.27127169   -14996.82614286
  entropy T*S    EENTRO =         0.10252501
  eigenvalues    EBANDS =      -999.09739882
  atomic energy  EATOM  =     14851.27451460
  ---------------------------------------------------
  free energy    TOTEN  =      -131.88565172 eV

  energy without entropy =     -131.98817673  energy(sigma->0) =     -131.91982673


--------------------------------------------------------------------------------------------------------




----------------------------------------- Iteration    1(  27)  ---------------------------------------


    POTLOK:  cpu time    0.09: real time    0.09
    SETDIJ:  cpu time    0.03: real time    0.03
    EDDIAG:  cpu time    0.83: real time    1.44
  RMM-DIIS:  cpu time    4.53: real time    7.39
    ORTHCH:  cpu time    0.18: real time    0.22
       DOS:  cpu time    0.00: real time    0.01
    CHARGE:  cpu time    0.33: real time    0.64
    MIXING:  cpu time    0.01: real time    0.02
    --------------------------------------------
      LOOP:  cpu time    6.00: real time    9.84

 eigenvalue-minimisations  :  2219
 total energy-change (2. order) : 0.4713368E-01  (-0.5488638E-02)
 number of electron     173.9999900 magnetization 
 augmentation part       53.0957750 magnetization 

 Broyden mixing:
  rms(total) = 0.78654E+00    rms(broyden)= 0.78592E+00
  rms(prec ) = 0.97794E+00
  weight for this iteration     100.00

 eigenvalues of (default mixing * dielectric matrix)
  average eigenvalue GAMMA=   0.4325
  1.9814  1.0281  1.0281  0.5434  0.5434  0.3619  0.2898  0.1949  0.1949  0.0865
  0.0517  0.0517  0.0479  0.0479  0.0360

 Free energy of the ion-electron system (eV)
  ---------------------------------------------------
  alpha Z        PSCENC =       634.09262729
  Ewald energy   TEWEN  =    -10612.72848518
  -Hartree energ DENC   =     -4466.78835128
  -exchange      EXHF   =         0.00000000
  -V(xc)+E(xc)   XCENC  =       604.17172541
  PAW double counting   =     14859.12326589   -15001.54493356
  entropy T*S    EENTRO =         0.10311102
  eigenvalues    EBANDS =      -999.54199224
  atomic energy  EATOM  =     14851.27451460
  ---------------------------------------------------
  free energy    TOTEN  =      -131.83851804 eV

  energy without entropy =     -131.94162906  energy(sigma->0) =     -131.87288838


--------------------------------------------------------------------------------------------------------




----------------------------------------- Iteration    1(  28)  ---------------------------------------


    POTLOK:  cpu time    0.09: real time    0.19
    SETDIJ:  cpu time    0.03: real time    0.05
    EDDIAG:  cpu time    0.86: real time    1.51
  RMM-DIIS:  cpu time    4.70: real time    5.34
    ORTHCH:  cpu time    0.19: real time    0.24
       DOS:  cpu time    0.00: real time    0.00
    CHARGE:  cpu time    0.33: real time    0.38
    MIXING:  cpu time    0.01: real time    0.01
    --------------------------------------------
      LOOP:  cpu time    6.21: real time    7.72

 eigenvalue-minimisations  :  2029
 total energy-change (2. order) :-0.1359887E+00  (-0.5712998E-02)
 number of electron     173.9999907 magnetization 
 augmentation part       53.0549773 magnetization 

 Broyden mixing:
  rms(total) = 0.58040E+00    rms(broyden)= 0.57999E+00
  rms(prec ) = 0.72521E+00
  weight for this iteration     100.00

 eigenvalues of (default mixing * dielectric matrix)
  average eigenvalue GAMMA=   0.4890
  2.1996  1.2758  1.2758  0.6001  0.6001  0.5218  0.3379  0.3011  0.1949  0.1949
  0.0865  0.0517  0.0517  0.0479  0.0479  0.0360

 Free energy of the ion-electron system (eV)
  ---------------------------------------------------
  alpha Z        PSCENC =       634.09262729
  Ewald energy   TEWEN  =    -10612.72848518
  -Hartree energ DENC   =     -4465.92930491
  -exchange      EXHF   =         0.00000000
  -V(xc)+E(xc)   XCENC  =       604.26340779
  PAW double counting   =     14874.83824716   -15017.01521623
  entropy T*S    EENTRO =         0.09126451
  eigenvalues    EBANDS =     -1000.86156177
  atomic energy  EATOM  =     14851.27451460
  ---------------------------------------------------
  free energy    TOTEN  =      -131.97450674 eV

  energy without entropy =     -132.06577124  energy(sigma->0) =     -132.00492824


--------------------------------------------------------------------------------------------------------




----------------------------------------- Iteration    1(  29)  ---------------------------------------


    POTLOK:  cpu time    0.10: real time    0.10
    SETDIJ:  cpu time    0.03: real time    0.03
    EDDIAG:  cpu time    0.84: real time    0.84
  RMM-DIIS:  cpu time    3.36: real time    4.12
    ORTHCH:  cpu time    0.17: real time    0.17
       DOS:  cpu time    0.00: real time    0.00
[...]
     41      -3.9092      2.00000
     42      -3.9083      2.00000
     43      -3.7224      2.00000
     44      -3.7214      2.00000
     45      -3.6123      2.00000
     46      -3.6114      2.00000
     47      -3.4643      2.00000
     48      -3.4641      2.00000
     49      -3.1661      2.00000
     50      -3.1655      2.00000
     51      -3.1203      2.00000
     52      -3.1202      2.00000
     53      -2.9369      2.00000
     54      -2.9366      2.00000
     55      -2.8350      2.00000
     56      -2.8346      2.00000
     57      -2.8055      2.00000
     58      -2.8054      2.00000
     59      -2.6135      2.00000
     60      -2.6126      2.00000
     61      -2.4385      2.00000
     62      -2.4374      2.00000
     63      -1.6460      2.00000
     64      -1.6460      2.00000
     65       0.9757      2.00001
     66       0.9764      2.00001
     67       1.0668      2.00021
     68       1.0670      2.00022
     69       1.1377      2.00132
     70       1.1382      2.00134
     71       1.1844      2.00377
     72       1.1866      2.00395
     73       1.2148      2.00695
     74       1.2154      2.00703
     75       1.2832      2.02219
     76       1.2840      2.02248
     77       1.3184      2.03557
     78       1.3192      2.03593
     79       1.3815      2.06341
     80       1.3839      2.06427
     81       1.3920      2.06688
     82       1.3934      2.06728
     83       1.4425      2.06497
     84       1.4433      2.06459
     85       1.4924      2.00250
     86       1.4941      1.99865
     87       1.6979      0.70117
     88       1.6980      0.69983
     89       1.8290      0.00295
     90       1.8301      0.00047
     91       1.9473     -0.06148
     92       1.9507     -0.06013
     93       2.0853     -0.01076
     94       2.0857     -0.01068
     95       2.2216     -0.00055
     96       2.2221     -0.00054
     97       2.3228     -0.00003
     98       2.3249     -0.00003
     99       2.4595     -0.00000
    100       2.4626     -0.00000
    101       2.5548     -0.00000
    102       2.5559     -0.00000
    103       2.8197     -0.00000
    104       2.8202     -0.00000

 k-point     8 :       0.5000    0.5000    0.5000
  band No.  band energies     occupation 
      1     -22.4408      2.00000
      2     -22.4385      2.00000
      3     -22.3903      2.00000
      4     -22.3894      2.00000
      5     -22.3177      2.00000
      6     -22.3172      2.00000
      7     -22.2436      2.00000
      8     -22.2420      2.00000
      9     -22.1518      2.00000
     10     -22.1505      2.00000
     11     -22.0009      2.00000
     12     -22.0000      2.00000
     13     -21.9149      2.00000
     14     -21.9130      2.00000
     15     -16.7564      2.00000
     16     -16.7564      2.00000
     17      -5.6489      2.00000
     18      -5.6483      2.00000
     19      -5.5315      2.00000
     20      -5.5305      2.00000
     21      -5.2911      2.00000
     22      -5.2908      2.00000
     23      -5.1629      2.00000
     24      -5.1625      2.00000
     25      -4.8817      2.00000
     26      -4.8809      2.00000
     27      -4.7280      2.00000
     28      -4.7278      2.00000
     29      -4.5216      2.00000
     30      -4.5214      2.00000
     31      -4.4040      2.00000
     32      -4.4032      2.00000
     33      -4.2166      2.00000
     34      -4.2157      2.00000
     35      -4.1008      2.00000
     36      -4.1006      2.00000
     37      -4.0720      2.00000
     38      -4.0715      2.00000
     39      -3.9918      2.00000
     40      -3.9916      2.00000
     41      -3.9055      2.00000
     42      -3.9049      2.00000
     43      -3.6625      2.00000
     44      -3.6620      2.00000
     45      -3.4083      2.00000
     46      -3.4077      2.00000
     47      -3.3656      2.00000
     48      -3.3653      2.00000
     49      -3.2683      2.00000
     50      -3.2672      2.00000
     51      -3.1568      2.00000
     52      -3.1554      2.00000
     53      -3.0293      2.00000
     54      -3.0290      2.00000
     55      -2.9517      2.00000
     56      -2.9514      2.00000
     57      -2.7652      2.00000
     58      -2.7650      2.00000
     59      -2.7421      2.00000
     60      -2.7416      2.00000
     61      -2.5340      2.00000
     62      -2.5334      2.00000
     63      -1.7702      2.00000
     64      -1.7700      2.00000
     65       0.8980      2.00000
     66       0.8985      2.00000
     67       0.9613      2.00001
     68       0.9619      2.00001
     69       1.0505      2.00014
     70       1.0510      2.00014
     71       1.1343      2.00122
     72       1.1358      2.00127
     73       1.1848      2.00380
     74       1.1859      2.00389
     75       1.2275      2.00882
     76       1.2289      2.00905
     77       1.3094      2.03182
     78       1.3112      2.03255
     79       1.3706      2.05908
     80       1.3720      2.05964
     81       1.4010      2.06915
     82       1.4032      2.06960
     83       1.4732      2.03645
     84       1.4745      2.03466
     85       1.5229      1.91619
     86       1.5247      1.90982
     87       1.6316      1.25355
     88       1.6326      1.24536
     89       1.7931      0.11285
     90       1.7932      0.11250
     91       1.9166     -0.07023
     92       1.9183     -0.06999
     93       2.0145     -0.03178
     94       2.0146     -0.03175
     95       2.1120     -0.00656
     96       2.1146     -0.00624
     97       2.3410     -0.00002
     98       2.3436     -0.00002
     99       2.5009     -0.00000
    100       2.5017     -0.00000
    101       2.6589     -0.00000
    102       2.6601     -0.00000
    103       3.0330     -0.00000
    104       3.0341     -0.00000


--------------------------------------------------------------------------------------------------------


 soft charge-density along one line, spin component           1
         0         1         2         3         4         5         6         7         8         9
 total charge-density along one line
 
 pseudopotential strength for first ion, spin component:           1
 -7.615  -0.003   0.055  -0.086   0.027  -8.095  -0.003   0.053
 -0.003  -7.568   0.100   0.020  -0.033  -0.003  -8.050   0.097
  0.055   0.100  -7.555  -0.018   0.027   0.053   0.097  -8.037
 -0.086   0.020  -0.018  -7.530   0.031  -0.083   0.019  -0.017
  0.027  -0.033   0.027   0.031  -7.484   0.026  -0.032   0.026
 -8.095  -0.003   0.053  -0.083   0.026  -8.535  -0.002   0.051
 -0.003  -8.050   0.097   0.019  -0.032  -0.002  -8.491   0.094
  0.053   0.097  -8.037  -0.017   0.026   0.051   0.094  -8.479
 -0.083   0.019  -0.017  -8.013   0.030  -0.081   0.019  -0.016
  0.026  -0.032   0.026   0.030  -7.969   0.025  -0.031   0.025
  0.007  -0.001   0.000  -0.002   0.002   0.007  -0.001   0.000
  0.013  -0.001   0.001  -0.005   0.003   0.012  -0.001   0.001
 -0.002  -0.000   0.001   0.000   0.001  -0.002  -0.000   0.001
  0.000  -0.002  -0.000  -0.002   0.000   0.000  -0.002  -0.000
 -0.001   0.000   0.001  -0.000  -0.002  -0.001   0.000   0.001
 -0.002  -0.000   0.001   0.000   0.002  -0.002  -0.000   0.001
  0.000  -0.002  -0.000  -0.002   0.000   0.000  -0.002  -0.000
 -0.002   0.000   0.001  -0.000  -0.002  -0.002   0.000   0.001
 total augmentation occupancy for first ion, spin component:           1
  3.159  -0.115   0.185  -0.867   0.232  -2.502  -0.060   0.318  -0.304   0.123  -0.337   0.064   0.000   0.004  -0.004  -0.000
 -0.115   3.540   1.139   0.603  -0.377  -0.052  -2.238   0.184  -0.124  -0.017  -0.065   0.021  -0.013  -0.010  -0.002   0.002
  0.185   1.139   3.812  -0.297   0.295   0.337   0.196  -2.279   0.057  -0.006  -0.026   0.002  -0.007  -0.005  -0.006   0.001
 -0.867   0.603  -0.297   4.220   0.331  -0.314  -0.136   0.057  -2.277   0.026   0.130  -0.018  -0.004  -0.012  -0.017   0.001
  0.232  -0.377   0.295   0.331   4.834   0.129  -0.028   0.005   0.034  -2.263  -0.048   0.007  -0.007  -0.003  -0.003   0.002
 -2.502  -0.052   0.337  -0.314   0.129   2.724   0.162  -0.588   0.872  -0.294   0.347  -0.072  -0.003  -0.002   0.002   0.001
 -0.060  -2.238   0.196  -0.136  -0.028   0.162   2.124  -0.820  -0.089   0.206   0.085  -0.024   0.011   0.009   0.002  -0.002
  0.318   0.184  -2.279   0.057   0.005  -0.588  -0.820   2.072   0.024  -0.139   0.014  -0.001   0.007   0.005   0.006  -0.001
 -0.304  -0.124   0.057  -2.277   0.034   0.872  -0.089   0.024   1.861  -0.222  -0.094   0.016   0.002   0.011   0.018  -0.000
  0.123  -0.017  -0.006   0.026  -2.263  -0.294   0.206  -0.139  -0.222   1.499   0.034  -0.006   0.007   0.004   0.003  -0.002
 -0.337  -0.065  -0.026   0.130  -0.048   0.347   0.085   0.014  -0.094   0.034   1.407  -0.261  -0.000   0.007  -0.000  -0.000
  0.064   0.021   0.002  -0.018   0.007  -0.072  -0.024  -0.001   0.016  -0.006  -0.261   0.055   0.000  -0.002  -0.000   0.000
  0.000  -0.013  -0.007  -0.004  -0.007  -0.003   0.011   0.007   0.002   0.007  -0.000   0.000   0.172   0.007   0.028  -0.028
  0.004  -0.010  -0.005  -0.012  -0.003  -0.002   0.009   0.005   0.011   0.004   0.007  -0.002   0.007   0.172  -0.003  -0.002
 -0.004  -0.002  -0.006  -0.017  -0.003   0.002   0.002   0.006   0.018   0.003  -0.000  -0.000   0.028  -0.003   0.175  -0.005
 -0.000   0.002   0.001   0.001   0.002   0.001  -0.002  -0.001  -0.000  -0.002  -0.000   0.000  -0.028  -0.002  -0.005   0.005
  0.001  -0.000   0.000  -0.000   0.001  -0.000  -0.001  -0.001  -0.001  -0.001  -0.002   0.000  -0.002  -0.028   0.001   0.000
  0.000   0.001   0.001   0.004  -0.001  -0.001  -0.000  -0.001  -0.004   0.000  -0.000   0.000  -0.005   0.001  -0.028   0.001


------------------------ aborting loop because EDIFF is reached ----------------------------------------


    CHARGE:  cpu time    0.33: real time    0.55
    FORLOC:  cpu time    0.03: real time    0.03
    FORNL :  cpu time    1.61: real time    2.68
    STRESS:  cpu time    4.72: real time    8.96
    FORCOR:  cpu time    0.13: real time    0.19
    FORHAR:  cpu time    0.05: real time    0.10
    MIXING:  cpu time    0.01: real time    0.02
    OFIELD:  cpu time    0.00: real time    0.00

  FORCE on cell =-STRESS in cart. coord.  units (eV):
  Direction    XX          YY          ZZ          XY          YZ          ZX
  --------------------------------------------------------------------------------------
  Alpha Z   634.09263   634.09263   634.09263
  Ewald   -3653.97460 -3842.38033 -3116.40590     0.00000    -0.00000  -362.79837
  Hartree  1428.93076  1322.80158  1713.59526     0.14465     0.06016  -206.62164
  E(xc)    -922.98092  -923.27565  -922.24902     0.00094     0.00418    -0.46284
  Local    -349.83778   -63.83095 -1144.59204    -0.17172    -0.04024   553.81288
  n-local  -851.84251  -852.20660  -849.82499    -0.00254    -0.00013    -0.84263
  augment   568.26184   569.68038   563.20908    -0.00551    -0.01221     2.29115
  Kinetic  3098.79919  3108.05453  3067.30227     0.00701    -0.01560    17.74090
  Fock        0.00000     0.00000     0.00000     0.00000     0.00000     0.00000
  -------------------------------------------------------------------------------------
  Total     -48.55139   -47.06442   -54.87271    -0.02717    -0.00384     3.11946
  in kB    -260.37542  -252.40101  -294.27595    -0.14571    -0.02061    16.72932
  external pressure =     -269.02 kB  Pullay stress =        0.00 kB


 VOLUME and BASIS-vectors are now :
 -----------------------------------------------------------------------------
  energy-cutoff  :      400.00
  volume of cell :      298.75
      direct lattice vectors                 reciprocal lattice vectors
     5.735919000  0.000000000 -0.790267000     0.174339979  0.000000000  0.000000000
     0.000000000  4.785442000  0.000000000     0.000000000  0.208967113  0.000000000
     0.000000000  0.000000000 10.883966000     0.012658541  0.000000000  0.091878273

  length of vectors
     5.790102651  4.785442000 10.883966000     0.174339979  0.208967113  0.092746190


 FORCES acting on ions
    electron-ion (+dipol)            ewald-force                    non-local-force                 convergence-correction
 -----------------------------------------------------------------------------------------------
   -.378E+00 -.269E+01 0.815E+01   0.468E+00 0.280E+01 -.832E+01   0.749E-01 -.124E+00 -.398E-01   -.232E-01 0.781E-03 0.114E+00
   -.356E+00 0.269E+01 0.836E+01   0.468E+00 -.280E+01 -.832E+01   0.756E-01 0.123E+00 -.401E-01   -.456E-01 0.191E-04 -.949E-01
   -.235E+01 -.122E+02 -.171E+01   0.491E+01 0.104E+02 0.874E+00   -.156E+01 0.115E+01 0.313E+00   -.464E-01 -.698E-02 -.186E+00
   -.237E+01 0.122E+02 -.210E+01   0.491E+01 -.104E+02 0.874E+00   -.155E+01 -.115E+01 0.307E+00   -.285E-01 -.368E-02 0.201E+00
   -.207E+01 0.277E+01 0.103E+02   0.266E+01 -.414E+01 -.783E+01   -.509E+00 0.124E+01 -.224E+01   0.351E-01 -.107E-01 -.161E+00
   -.208E+01 -.276E+01 0.100E+02   0.266E+01 0.414E+01 -.783E+01   -.508E+00 -.124E+01 -.224E+01   0.384E-01 -.783E-02 0.966E-01
   0.829E+01 -.133E-01 -.894E+01   -.103E+02 -.225E+01 0.750E+01   0.980E+00 0.104E+01 0.750E+00   0.627E-01 -.338E-02 0.182E+00
   0.832E+01 0.183E-01 -.855E+01   -.103E+02 0.225E+01 0.750E+01   0.979E+00 -.104E+01 0.752E+00   0.290E-01 0.416E-03 -.206E+00
   -.209E+02 0.380E+02 -.619E+02   0.221E+02 -.409E+02 0.672E+02   -.175E+01 0.301E+01 -.397E+01   0.177E+00 -.114E+00 -.318E+00
   -.207E+02 -.378E+02 -.623E+02   0.221E+02 0.409E+02 0.672E+02   -.175E+01 -.300E+01 -.397E+01   -.259E-01 -.540E-01 0.659E-01
   -.364E+02 0.236E+02 0.321E+02   0.381E+02 -.225E+02 -.344E+02   -.155E+01 -.129E+01 0.194E+01   0.177E+00 -.193E+00 0.185E+00
   -.362E+02 -.234E+02 0.323E+02   0.381E+02 0.225E+02 -.344E+02   -.156E+01 0.129E+01 0.193E+01   0.596E-01 -.877E-02 0.302E-01
   0.176E+02 -.131E+02 0.257E+02   -.173E+02 0.137E+02 -.281E+02   -.989E-01 -.102E+01 0.270E+01   -.224E+00 0.108E+00 0.640E-01
   0.173E+02 0.128E+02 0.254E+02   -.173E+02 -.137E+02 -.281E+02   -.104E+00 0.102E+01 0.270E+01   0.962E-01 0.150E+00 0.360E+00
   -.198E+02 0.127E+02 -.263E+02   0.201E+02 -.131E+02 0.275E+02   -.601E+00 0.659E+00 -.146E+01   0.740E-01 -.222E-01 0.555E-01
   -.194E+02 -.124E+02 -.257E+02   0.201E+02 0.131E+02 0.275E+02   -.594E+00 -.660E+00 -.146E+01   -.300E+00 -.279E+00 -.475E+00
   0.328E+02 -.306E+02 -.228E+02   -.346E+02 0.318E+02 0.238E+02   0.189E+01 -.149E+01 0.353E-01   -.211E+00 0.256E+00 -.461E+00
   0.326E+02 0.304E+02 -.233E+02   -.346E+02 -.318E+02 0.238E+02   0.189E+01 0.150E+01 0.273E-01   -.411E-01 -.129E-01 0.102E+00
   0.114E+02 0.642E+01 0.190E+02   -.131E+02 -.778E+01 -.212E+02   0.130E+01 0.199E+01 0.191E+01   -.419E-01 -.103E+00 0.282E+00
   0.115E+02 -.621E+01 0.192E+02   -.131E+02 0.778E+01 -.212E+02   0.129E+01 -.199E+01 0.193E+01   -.146E+00 -.103E+00 0.136E+00
   0.194E+02 -.277E+02 0.430E+02   -.196E+02 0.279E+02 -.418E+02   0.346E+00 -.186E+00 -.224E+01   -.339E-01 0.393E-01 0.203E+00
   0.192E+02 0.275E+02 0.432E+02   -.196E+02 -.279E+02 -.418E+02   0.342E+00 0.184E+00 -.224E+01   0.209E+00 0.188E+00 0.630E-01
   -.638E+01 0.337E+01 -.149E+02   0.655E+01 -.482E+01 0.148E+02   0.149E+00 0.989E+00 0.590E+00   0.675E-01 0.323E-01 -.236E-02
   -.645E+01 -.352E+01 -.147E+02   0.655E+01 0.482E+01 0.148E+02   0.155E+00 -.994E+00 0.592E+00   0.137E+00 0.128E+00 -.260E+00
 -----------------------------------------------------------------------------------------------
   0.267E+01 0.256E-01 0.346E+01   0.355E-13 0.915E-13 0.782E-13   -.266E+01 0.414E-02 -.341E+01   -.419E-02 -.212E-01 -.256E-01
 
 
 POSITION                                       TOTAL-FORCE (eV/Angst)
 -----------------------------------------------------------------------------------
      1.41674      1.18921      7.92678         0.141200     -0.013261     -0.094822
      1.41674      3.59623      2.48480         0.141656      0.012534     -0.094600
      2.95318      1.17232      5.02196         0.953977     -0.646150     -0.713905
      2.95318      3.61312     10.46394         0.960260      0.649107     -0.718034
      4.32339      1.10675      2.28709         0.110283     -0.138499      0.067049
      4.32339      3.67869      7.72908         0.112695      0.138801      0.063979
      5.68119      1.15507     10.06346        -0.985869     -1.222424     -0.509856
      5.68119      3.63037      4.62148        -0.991537      1.226362     -0.510198
      4.46583      0.27984      3.92608        -0.392617     -0.093945      1.008034
      4.46583      4.50560      9.36806        -0.390420      0.095274      1.007047
      0.07858      0.27543      1.97861         0.342819     -0.351835     -0.195349
      0.07858      4.51001      7.42059         0.341543      0.350989     -0.199483
      1.27480      2.15077      6.03698         0.052277     -0.266072      0.348366
      1.27480      2.63467      0.59499         0.049869      0.263246      0.352810
      1.60166      0.24763      9.81475        -0.201753      0.269575     -0.202348
      1.60166      4.53781      4.37277        -0.197509     -0.267933     -0.202964
      2.76400      2.17034      3.05678        -0.214259     -0.025180      0.629035
      2.76400      2.61510      8.49876        -0.214667      0.023380      0.622777
      2.99722      0.17036      6.92466        -0.381460      0.525900     -0.002235
      2.99722      4.61508      1.48267        -0.381319     -0.523613      0.008542
      4.14336      2.12005      0.42061         0.181137      0.055043     -0.786120
      4.14336      2.66540      5.86260         0.177580     -0.058497     -0.789401
      5.58353      2.18458      8.15127         0.392457     -0.433171      0.455568
      5.58353      2.60086      2.70929         0.393656      0.430370      0.456105
 -----------------------------------------------------------------------------------
    total drift:                                0.006673      0.008471      0.022877


--------------------------------------------------------------------------------------------------------



  FREE ENERGIE OF THE ION-ELECTRON SYSTEM (eV)
  ---------------------------------------------------
  free  energy   TOTEN  =      -132.10958600 eV

  energy  without entropy=     -132.22128245  energy(sigma->0) =     -132.14681815
 


--------------------------------------------------------------------------------------------------------


    POTLOK:  cpu time    0.11: real time    0.22


--------------------------------------------------------------------------------------------------------


 Quasi-Newton relaxation of ions (Broydens 2nd method)
  g(Force)  = 0.822E+00   g(Stress)= 0.000E+00

 Reset! Starting new Quasi-Newton update for ions 


--------------------------------------------------------------------------------------------------------


     LOOP+:  cpu time  204.90: real time  340.13
    4ORBIT:  cpu time    0.00: real time    0.00

 total amount of memory used by VASP on root node   141667. kBytes
========================================================================

   base      :      30000. kBytes
   nonlr-proj:       4329. kBytes
   fftplans  :      10056. kBytes
   grid      :      20299. kBytes
   one-center:        373. kBytes
   wavefun   :      76610. kBytes
 
  
  
 General timing and accounting informations for this job:
 ========================================================
  
                  Total CPU time used (sec):      206.542
                            User time (sec):      206.295
                          System time (sec):        0.247
                         Elapsed time (sec):      343.507
  
                   Maximum memory used (kb):      162072.
                   Average memory used (kb):           0.
  
                          Minor page faults:        96620
                          Major page faults:            0
                 Voluntary context switches:          570
