 running on    1 total cores
 distrk:  each k-point on    1 cores,    1 groups
 distr:  one band on    1 cores,    1 groups
 using from now: INCAR     
 vasp.5.3.5 31Mar14 (build Aug 29 2014 19:41:47) complex                        
  
 POSCAR found type information on POSCAR  Fe O  F 
 POSCAR found :  3 types and      24 ions
 scaLAPACK will be used
 LDA part: xc-table for Pade appr. of Perdew
 POSCAR, INCAR and KPOINTS ok, starting setup
 WARNING: small aliasing (wrap around) errors must be expected
 FFT: planning ...
 WAVECAR not read
 entering main loop
       N       E                     dE             d eps       ncg     rms          rms(c)
RMM:   1     0.212790123107E+04    0.21279E+04   -0.65460E+04   832   0.144E+03
RMM:   2     0.663496704215E+03   -0.14644E+04   -0.16498E+04   832   0.414E+02
RMM:   3     0.225828743948E+03   -0.43767E+03   -0.43435E+03   832   0.265E+02
RMM:   4     0.417247628784E+02   -0.18410E+03   -0.15724E+03   832   0.259E+02
RMM:   5    -0.626803388144E+02   -0.10441E+03   -0.81748E+02   832   0.127E+02
RMM:   6    -0.110288953511E+03   -0.47609E+02   -0.36037E+02   832   0.114E+02
RMM:   7    -0.135014210991E+03   -0.24725E+02   -0.19884E+02   832   0.565E+01
RMM:   8    -0.144986907396E+03   -0.99727E+01   -0.81003E+01   832   0.555E+01
RMM:   9    -0.154968761569E+03   -0.99819E+01   -0.91393E+01  2653   0.252E+01
RMM:  10    -0.155180435304E+03   -0.21167E+00   -0.43844E+00  2640   0.408E+00
RMM:  11    -0.155373317542E+03   -0.19288E+00   -0.16956E+00  2418   0.129E+00
RMM:  12    -0.155459697324E+03   -0.86380E-01   -0.77846E-01  1964   0.639E-01    0.383E+01
RMM:  13    -0.145988968131E+03    0.94707E+01   -0.18897E+02  2031   0.556E+01    0.596E+01
RMM:  14    -0.184539393845E+03   -0.38550E+02   -0.40735E+01  1809   0.251E+01    0.927E+01
RMM:  15    -0.159729228365E+03    0.24810E+02   -0.16251E+01  1954   0.170E+01    0.879E+01
RMM:  16    -0.139294089380E+03    0.20435E+02   -0.59331E+00  1881   0.976E+00    0.523E+01
RMM:  17    -0.150795130473E+03   -0.11501E+02   -0.10704E+01  1826   0.108E+01    0.743E+01
RMM:  18    -0.168115431894E+03   -0.17320E+02   -0.13878E+01  1928   0.130E+01    0.818E+01
RMM:  19    -0.158774825906E+03    0.93406E+01   -0.68668E+00  1909   0.104E+01    0.867E+01
RMM:  20    -0.148592030134E+03    0.10183E+02   -0.34550E+00  1892   0.700E+00    0.723E+01
RMM:  21    -0.143245020757E+03    0.53470E+01   -0.29774E+00  1987   0.622E+00    0.620E+01
RMM:  22    -0.151084045653E+03   -0.78390E+01   -0.51005E+00  1770   0.828E+00    0.728E+01
RMM:  23    -0.138440982818E+03    0.12643E+02   -0.56651E+00  2031   0.944E+00    0.577E+01
RMM:  24    -0.133948702527E+03    0.44923E+01   -0.10240E+00  1828   0.438E+00    0.304E+01
RMM:  25    -0.132289321047E+03    0.16594E+01   -0.64038E-01  2027   0.317E+00    0.114E+01
RMM:  26    -0.131885651723E+03    0.40367E+00   -0.13177E-01  1925   0.172E+00    0.105E+01
RMM:  27    -0.131838518043E+03    0.47134E-01   -0.54886E-02  2219   0.811E-01    0.787E+00
RMM:  28    -0.131974506738E+03   -0.13599E+00   -0.57130E-02  2029   0.959E-01    0.580E+00
RMM:  29    -0.132112006433E+03   -0.13750E+00   -0.58339E-02  1768   0.119E+00    0.625E+00
RMM:  30    -0.132120330596E+03   -0.83242E-02   -0.78499E-02  2128   0.105E+00    0.306E+00
RMM:  31    -0.132120928561E+03   -0.59796E-03   -0.12030E-02  1895   0.486E-01    0.306E+00
RMM:  32    -0.132116978092E+03    0.39505E-02   -0.48312E-03  1901   0.284E-01    0.257E+00
RMM:  33    -0.132117376067E+03   -0.39798E-03   -0.27052E-03  1751   0.239E-01    0.210E+00
RMM:  34    -0.132114944724E+03    0.24313E-02   -0.14608E-03  1629   0.185E-01    0.153E+00
RMM:  35    -0.132111303161E+03    0.36416E-02   -0.92716E-04  1397   0.130E-01    0.963E-01
RMM:  36    -0.132110232142E+03    0.10710E-02   -0.43162E-04  1199   0.795E-02    0.742E-01
RMM:  37    -0.132109799244E+03    0.43290E-03   -0.28127E-04  1066   0.747E-02    0.456E-01
RMM:  38    -0.132109570897E+03    0.22835E-03   -0.28927E-04  1035   0.696E-02    0.226E-01
RMM:  39    -0.132109585996E+03   -0.15099E-04   -0.81133E-05   870   0.459E-02
   1 F= -.13210959E+03 E0= -.13214682E+03  d E =-.132110E+03
 BRION: g(F)=  0.822E+00 g(S)=  0.000E+00
