
  ___ ___ ___ _ _ _  
 |   |   |_  | | | | 
 | | | | | . | | | | 
 |__ |  _|___|_____|  1.4.0
 |___|_|             

User:   murakami@tssm1.eng.shizuoka.ac.jp
Date:   Fri Apr 19 17:52:26 2019
Arch:   x86_64
Pid:    31945
Python: 3.6.5
gpaw:   /home/murakami/.local/lib/python3.6/site-packages/gpaw
_gpaw:  /home/murakami/.local/lib/python3.6/site-packages/
        _gpaw.cpython-36m-x86_64-linux-gnu.so
ase:    /home/murakami/.local/lib/python3.6/site-packages/ase (version 3.16.2)
numpy:  /home/murakami/.local/lib/python3.6/site-packages/numpy (version 1.15.2)
scipy:  /home/murakami/.local/lib/python3.6/site-packages/scipy (version 1.1.0)
units:  Angstrom and eV
cores:  1

Input parameters:
  kpts: {size: (1, 1, 1)}
  maxiter: 300
  xc: PBE

System changes: positions, numbers, cell, pbc, initial_charges, initial_magmoms 

Initialize ...

Fe-setup:
  name: Iron
  id: 37abbd8d6c3c35915a9b583b742da910
  Z: 26
  valence: 8
  core: 18
  charge: 0.0
  file: /home/murakami/Public/gpaw-setups-0.9.20000/Fe.PBE.gz
  cutoffs: 1.06(comp), 2.06(filt), 2.67(core), lmax=2
  valence states:
                energy  radius
    4s(2.00)    -5.291   1.164
    4p(0.00)    -1.326   1.058
    3d(6.00)    -7.505   1.058
    *s          21.920   1.164
    *p          25.885   1.058
    *d          19.706   1.058

  Using partial waves for Fe as LCAO basis

O-setup:
  name: Oxygen
  id: 32ecd46bf208036f09c70b0ec9a88b78
  Z: 8
  valence: 6
  core: 2
  charge: 0.0
  file: /home/murakami/Public/gpaw-setups-0.9.20000/O.PBE.gz
  cutoffs: 0.67(comp), 1.17(filt), 0.83(core), lmax=2
  valence states:
                energy  radius
    2s(2.00)   -23.961   0.688
    2p(4.00)    -9.029   0.598
    *s           3.251   0.688
    *p          18.182   0.598
    *d           0.000   0.619

  Using partial waves for O as LCAO basis

F-setup:
  name: Fluorine
  id: 9cd46ba2a61e170ad72278be75b55cc0
  Z: 9
  valence: 7
  core: 2
  charge: 0.0
  file: /home/murakami/Public/gpaw-setups-0.9.20000/F.PBE.gz
  cutoffs: 0.64(comp), 1.14(filt), 0.74(core), lmax=2
  valence states:
                energy  radius
    2s(2.00)   -29.898   0.635
    2p(5.00)   -11.110   0.635
    *s          -2.687   0.635
    *p          16.102   0.635
    *d           0.000   0.635

  Using partial waves for F as LCAO basis

Reference energy: -319034.472395

Spin-paired calculation

Occupation numbers:
  Fermi-Dirac: width=0.1000 eV

Convergence criteria:
  Maximum total energy change: 0.0005 eV / electron
  Maximum integral of absolute density change: 0.0001 electrons
  Maximum integral of absolute eigenstate change: 4e-08 eV^2
  Maximum number of iterations: 300

Symmetries present (total): 1

  ( 1  0  0)
  ( 0  1  0)
  ( 0  0  1)

1 k-point (Gamma)
1 k-point in the irreducible part of the Brillouin zone
       k-points in crystal coordinates                weights
   0:     0.00000000    0.00000000    0.00000000          1/1

Wave functions: Uniform real-space grid
  Kinetic energy operator: 8*3+1=25 point O(h^6) finite-difference Laplacian
  ScaLapack parameters: grid=1x1, blocksize=None 

Eigensolver
   Davidson(niter=1, smin=None, normalize=True) 

Densities:
  Coarse grid: 28*24*52 grid
  Fine grid: 56*48*104 grid
  Total Charge: 0.000000 

Density mixing:
  Method: separate
  Backend: pulay
  Linear mixing parameter: 0.05
  Mixing with 5 old densities
  Damping of long wave oscillations: 50 

Hamiltonian:
  XC and Coulomb potentials evaluated on a 56*48*104 grid
  Using the PBE Exchange-Correlation functional
  Interpolation: tri-quintic (5. degree polynomial)
  Poisson solver: Jacobi solver with 4 multi-grid levels
    Coarsest grid: 7 x 6 x 13 points
    Stencil: 8*3+1=25 point O(h^6) finite-difference Laplacian
    Max iterations: 1000
    Tolerance: 2.000000e-10 

Memory estimate:
  Process memory now: 64.77 MiB
  Calculator: 140.46 MiB
    Density: 46.49 MiB
      Arrays: 6.93 MiB
      Localized functions: 36.90 MiB
      Mixer: 2.67 MiB
    Hamiltonian: 12.49 MiB
      Arrays: 4.53 MiB
      XC: 0.00 MiB
      Poisson: 5.17 MiB
      vbar: 2.79 MiB
    Wavefunctions: 81.47 MiB
      Arrays psit_nG: 36.26 MiB
      Eigensolver: 39.01 MiB
      Projections: 0.37 MiB
      Projectors: 5.84 MiB

Total number of cores used: 1

Number of atoms: 24
Number of atomic orbitals: 136
Number of bands in calculation: 136
Bands to converge: occupied states only
Number of valence electrons: 174

... initialized

Initializing position-dependent things.

Density initialized from atomic densities
Creating initial wave functions:
  136 bands from LCAO basis set

                                 
                                 
                                 
                                 
                Fe               
                     O           
                      Fe         
          FF   F    Fe           
                      F          
           Fe                    
           F       F             
              F        Fe        
               Fe                
                                 
             FeF FO   F          
                                 
       F          Fe             
            F     F              
                                 
                                 
                                 
                                 
                                 

Positions:
   0 Fe     1.416738    1.189211    7.926783    ( 0.0000,  0.0000,  0.0000)
   1 Fe     1.416738    3.596231    2.484800    ( 0.0000,  0.0000,  0.0000)
   2 Fe     2.953178    1.172318    5.021961    ( 0.0000,  0.0000,  0.0000)
   3 Fe     2.953178    3.613124   10.463944    ( 0.0000,  0.0000,  0.0000)
   4 Fe     4.323386    1.106753    2.287094    ( 0.0000,  0.0000,  0.0000)
   5 Fe     4.323386    3.678689    7.729077    ( 0.0000,  0.0000,  0.0000)
   6 Fe     5.681193    1.155072   10.063461    ( 0.0000,  0.0000,  0.0000)
   7 Fe     5.681193    3.630370    4.621478    ( 0.0000,  0.0000,  0.0000)
   8 O      4.465826    0.279843    3.926077    ( 0.0000,  0.0000,  0.0000)
   9 O      4.465826    4.505599    9.368060    ( 0.0000,  0.0000,  0.0000)
  10 F      0.078582    0.275431    1.978610    ( 0.0000,  0.0000,  0.0000)
  11 F      0.078582    4.510011    7.420593    ( 0.0000,  0.0000,  0.0000)
  12 F      1.274802    2.150774    6.036975    ( 0.0000,  0.0000,  0.0000)
  13 F      1.274802    2.634668    0.594992    ( 0.0000,  0.0000,  0.0000)
  14 F      1.601658    0.247632    9.814751    ( 0.0000,  0.0000,  0.0000)
  15 F      1.601658    4.537810    4.372768    ( 0.0000,  0.0000,  0.0000)
  16 F      2.763996    2.170342    3.056782    ( 0.0000,  0.0000,  0.0000)
  17 F      2.763996    2.615100    8.498765    ( 0.0000,  0.0000,  0.0000)
  18 F      2.997224    0.170362    6.924657    ( 0.0000,  0.0000,  0.0000)
  19 F      2.997224    4.615080    1.482674    ( 0.0000,  0.0000,  0.0000)
  20 F      4.143358    2.120047    0.420612    ( 0.0000,  0.0000,  0.0000)
  21 F      4.143358    2.665395    5.862595    ( 0.0000,  0.0000,  0.0000)
  22 F      5.583533    2.184578    8.151270    ( 0.0000,  0.0000,  0.0000)
  23 F      5.583533    2.600864    2.709287    ( 0.0000,  0.0000,  0.0000)

Unit cell:
           periodic     x           y           z      points  spacing
  1. axis:    yes    5.735919    0.000000   -0.790267    28     0.2049
  2. axis:    yes    0.000000    4.785442    0.000000    24     0.1994
  3. axis:    yes    0.000000    0.000000   10.883966    52     0.2073

  Lengths:   5.790103   4.785442  10.883966
  Angles:   90.000000  97.844547  90.000000

Effective grid spacing dv^(1/3) = 0.2045

                     log10-error:    total        iterations:
           time      wfs    density  energy       fermi  poisson
iter:   1  17:52:44  +1.56   +inf  -150.104126    3      17     
iter:   2  17:52:47  +0.21   +inf  -150.745384    3             
iter:   3  17:52:51  -0.39   +inf  -150.929488    2             
iter:   4  17:52:56  -0.63  -1.14  -149.191129    3      8      
iter:   5  17:53:01  -0.39  -1.18  -157.193398    3      9      
iter:   6  17:53:06  -0.31  -1.19  -146.389658    3      9      
iter:   7  17:53:11  -0.71  -1.42  -145.878667    3      6      
iter:   8  17:53:16  -1.46  -1.44  -145.941608    4      6      
iter:   9  17:53:21  -0.90  -1.43  -145.529201    35     9      
iter:  10  17:53:25  -0.96  -1.56  -146.925283    4      10     
iter:  11  17:53:30  -0.86  -1.49  -146.184616    4      13     
iter:  12  17:53:35  -1.11  -1.63  -145.750953    3      13     
iter:  13  17:53:40  -1.63  -1.69  -145.623786    4      12     
iter:  14  17:53:45  -1.69  -1.76  -145.682285    3      10     
iter:  15  17:53:50  -1.68  -1.76  -145.573491    4      10     
iter:  16  17:53:55  -2.05  -1.77  -145.885899    3      12     
iter:  17  17:54:00  -1.68  -1.77  -145.961189    3      13     
iter:  18  17:54:07  -1.64  -1.72  -146.705232    3      13     
iter:  19  17:54:15  -1.63  -1.65  -145.846756    3      13     
iter:  20  17:54:22  -1.77  -1.86  -145.811402    3      11     
iter:  21  17:54:30  -1.79  -1.89  -145.722885    3      12     
iter:  22  17:54:37  -2.00  -1.85  -145.526356    3      11     
iter:  23  17:54:44  -2.36  -2.03  -145.561853    3      11     
iter:  24  17:54:49  -2.51  -1.99  -145.517326    3      10     
iter:  25  17:54:55  -2.66  -2.07  -145.460775    2      10     
iter:  26  17:55:00  -2.69  -2.11  -145.486047    3      9      
iter:  27  17:55:05  -2.27  -2.11  -145.642529    3      11     
iter:  28  17:55:12  -2.21  -2.07  -145.562220    3      11     
iter:  29  17:55:18  -2.20  -2.12  -145.736799    3      12     
iter:  30  17:55:24  -2.10  -1.97  -145.516157    3      12     
iter:  31  17:55:30  -2.44  -2.16  -145.480875    2      10     
iter:  32  17:55:36  -3.05  -2.22  -145.448161    3      8      
iter:  33  17:55:42  -3.70  -2.31  -145.445268    3      5      
iter:  34  17:55:48  -3.13  -2.34  -145.470185    3      8      
iter:  35  17:55:55  -2.56  -2.32  -145.467279    3      9      
iter:  36  17:56:02  -2.72  -2.47  -145.474671    2      9      
iter:  37  17:56:08  -2.76  -2.50  -145.504634    2      10     
iter:  38  17:56:14  -2.81  -2.39  -145.443418    3      10     
iter:  39  17:56:20  -3.21  -2.66  -145.435448    3      7      
iter:  40  17:56:26  -3.94  -2.76  -145.434453    2      5      
iter:  41  17:56:32  -4.37  -2.89  -145.431423    3      4      
iter:  42  17:56:38  -4.15  -2.92  -145.434667    2      5      
iter:  43  17:56:44  -4.15  -2.91  -145.436303    2      5      
iter:  44  17:56:51  -4.05  -2.88  -145.438125    3      6      
iter:  45  17:56:57  -3.90  -2.90  -145.439670    3      6      
iter:  46  17:57:02  -3.79  -3.02  -145.429266    3      5      
iter:  47  17:57:08  -4.08  -2.97  -145.435376    3      5      
iter:  48  17:57:14  -4.29  -3.01  -145.433076    2      4      
iter:  49  17:57:20  -4.50  -3.08  -145.432330    2      4      
iter:  50  17:57:27  -4.86  -3.13  -145.432214    2      4      
iter:  51  17:57:31  -5.00  -3.17  -145.431369    3      4      
iter:  52  17:57:36  -4.48  -3.23  -145.437368    2      4      
iter:  53  17:57:41  -4.37  -3.15  -145.432837    3      4      
iter:  54  17:57:45  -4.44  -3.18  -145.433996    2      4      
iter:  55  17:57:50  -4.39  -3.24  -145.435097    2      5      
iter:  56  17:57:54  -4.45  -3.13  -145.433935    2      5      
iter:  57  17:58:00  -4.84  -3.21  -145.434105    2      4      
iter:  58  17:58:05  -5.39  -3.38  -145.432714    2      3      
iter:  59  17:58:11  -5.72  -3.40  -145.433112    2      3      
iter:  60  17:58:17  -5.61  -3.42  -145.432842    2      3      
iter:  61  17:58:23  -4.79  -3.44  -145.433979    3      5      
iter:  62  17:58:29  -4.64  -3.23  -145.433342    3      5      
iter:  63  17:58:35  -4.59  -3.54  -145.433411    3      5      
iter:  64  17:58:41  -4.77  -3.36  -145.434173    3      5      
iter:  65  17:58:48  -5.46  -3.86  -145.433189    2      3      
iter:  66  17:58:54  -5.92  -4.21  -145.433541    2      2      
iter:  67  17:59:00  -6.21  -4.25  -145.433521    2      2      
iter:  68  17:59:07  -6.49  -4.19  -145.433671    2      2      
iter:  69  17:59:12  -6.72  -4.30  -145.433608    2      2      
iter:  70  17:59:18  -5.89  -4.29  -145.433768    2      3      
iter:  71  17:59:22  -6.07  -4.42  -145.432590    2      2      
iter:  72  17:59:27  -6.66  -4.47  -145.433838    2      2      
iter:  73  17:59:31  -6.99  -4.62  -145.433369    2      1      
iter:  74  17:59:36  -7.35  -4.67  -145.434014    2      1      
iter:  75  17:59:40  -7.54  -4.73  -145.433656    2      1      

Converged after 75 iterations.

Dipole moment: (-1.560051, 2.944922, -2.000948) |e|*Ang

Energy contributions relative to reference atoms: (reference = -319034.472395)

Kinetic:       +118.202185
Potential:     -132.126906
External:        +0.000000
XC:            -138.503001
Entropy (-ST):   -1.210623
Local:           +7.599379
--------------------------
Free energy:   -146.038967
Extrapolated:  -145.433656

Fermi level: 3.68487

 Band  Eigenvalues  Occupancy
    0    -20.67673    2.00000
    1    -20.59734    2.00000
    2    -20.36454    2.00000
    3    -20.31231    2.00000
    4    -20.29443    2.00000
    5    -20.27107    2.00000
    6    -20.19743    2.00000
    7    -20.16585    2.00000
    8    -20.15119    2.00000
    9    -20.12878    2.00000
   10    -19.96833    2.00000
   11    -19.96765    2.00000
   12    -19.85235    2.00000
   13    -19.85097    2.00000
   14    -14.58168    2.00000
   15    -14.57516    2.00000
   16     -4.19365    2.00000
   17     -3.84181    2.00000
   18     -3.42825    2.00000
   19     -3.28121    2.00000
   20     -3.25991    2.00000
   21     -3.08050    2.00000
   22     -3.04613    2.00000
   23     -2.99216    2.00000
   24     -2.94735    2.00000
   25     -2.87975    2.00000
   26     -2.76869    2.00000
   27     -2.62618    2.00000
   28     -2.61934    2.00000
   29     -2.61520    2.00000
   30     -2.47621    2.00000
   31     -2.44533    2.00000
   32     -2.41264    2.00000
   33     -2.35978    2.00000
   34     -2.33294    2.00000
   35     -2.29967    2.00000
   36     -2.26751    2.00000
   37     -2.24143    2.00000
   38     -2.10376    2.00000
   39     -2.08219    2.00000
   40     -2.05429    2.00000
   41     -1.99894    2.00000
   42     -1.99573    2.00000
   43     -1.93996    2.00000
   44     -1.77666    2.00000
   45     -1.70289    2.00000
   46     -1.48737    2.00000
   47     -1.43587    2.00000
   48     -1.39317    2.00000
   49     -1.30134    2.00000
   50     -1.13273    2.00000
   51     -1.09996    2.00000
   52     -1.03837    2.00000
   53     -1.02418    2.00000
   54     -0.87083    2.00000
   55     -0.82111    2.00000
   56     -0.75005    2.00000
   57     -0.73221    2.00000
   58     -0.56255    2.00000
   59     -0.48747    2.00000
   60     -0.40912    2.00000
   61     -0.34238    2.00000
   62      0.43879    2.00000
   63      0.44443    2.00000
   64      2.90657    1.99917
   65      2.92018    1.99905
   66      2.99238    1.99804
   67      2.99691    1.99794
   68      3.01339    1.99758
   69      3.03223    1.99708
   70      3.07032    1.99572
   71      3.10639    1.99387
   72      3.13786    1.99161
   73      3.15515    1.99004
   74      3.21080    1.98269
   75      3.22950    1.97916
   76      3.26129    1.97147
   77      3.28245    1.96487
   78      3.30165    1.95760
   79      3.35993    1.92530
   80      3.38400    1.90593
   81      3.38620    1.90393
   82      3.43436    1.84899
   83      3.47416    1.78317
   84      3.55967    1.55527
   85      3.58011    1.48062
   86      3.61274    1.34579
   87      3.70869    0.88143
   88      3.72292    0.81201
   89      3.84687    0.33040
   90      3.94678    0.13584
   91      3.94858    0.13357
   92      4.02585    0.06398
   93      4.07202    0.04080
   94      4.15683    0.01768
   95      4.15903    0.01730
   96      4.40875    0.00144
   97      4.49114    0.00063
   98      4.84024    0.00002
   99      4.94586    0.00001
  100      4.99742    0.00000
  101      5.01392    0.00000
  102      5.11708    0.00000
  103      5.28874    0.00000
  104      6.20634    0.00000
  105      7.98580    0.00000
  106      8.46626    0.00000
  107     10.96979    0.00000
  108     11.31983    0.00000
  109     11.34622    0.00000
  110     11.49892    0.00000
  111     11.72602    0.00000
  112     11.94256    0.00000
  113     12.03589    0.00000
  114     12.18846    0.00000
  115     12.84752    0.00000
  116     13.22336    0.00000
  117     13.22699    0.00000
  118     13.60935    0.00000
  119     13.88013    0.00000
  120     14.57013    0.00000
  121     14.99563    0.00000
  122     15.03698    0.00000
  123     15.11998    0.00000
  124     15.31681    0.00000
  125     15.74496    0.00000
  126     15.82004    0.00000
  127     15.86592    0.00000
  128     15.87114    0.00000
  129     15.97729    0.00000
  130     16.06074    0.00000
  131     16.16588    0.00000
  132     16.20101    0.00000
  133     16.30882    0.00000
  134     16.33627    0.00000
  135     16.45412    0.00000

Timing:                              incl.     excl.
-----------------------------------------------------------
Hamiltonian:                         2.787     0.000   0.0% |
 Atomic:                             1.532     0.003   0.0% |
  XC Correction:                     1.529     1.529   0.4% |
 Calculate atomic Hamiltonians:      0.011     0.011   0.0% |
 Communicate:                        0.000     0.000   0.0% |
 Hartree integrate/restrict:         0.003     0.003   0.0% |
 Initialize Hamiltonian:             0.000     0.000   0.0% |
 Poisson:                            0.829     0.829   0.2% |
 XC 3D grid:                         0.398     0.398   0.1% |
 vbar:                               0.013     0.013   0.0% |
LCAO initialization:                 8.697     0.311   0.1% |
 LCAO eigensolver:                   1.354     0.001   0.0% |
  Calculate projections:             0.003     0.003   0.0% |
  DenseAtomicCorrection:             0.003     0.003   0.0% |
  Distribute overlap matrix:         0.000     0.000   0.0% |
  Orbital Layouts:                   0.020     0.020   0.0% |
  Potential matrix:                  1.327     1.327   0.3% |
 LCAO to grid:                       6.063     6.063   1.4% ||
 Set positions (LCAO WFS):           0.968     0.000   0.0% |
  Basic WFS set positions:           0.001     0.001   0.0% |
  Basis functions set positions:     0.000     0.000   0.0% |
  TCI: Calculate S, T, P:            0.967     0.967   0.2% |
SCF-cycle:                         421.334     0.072   0.0% |
 Davidson:                         275.374    79.718  18.4% |------|
  Apply hamiltonian:                10.269    10.269   2.4% ||
  Subspace diag:                    66.949     0.012   0.0% |
   calc_h_matrix:                   28.718    18.850   4.3% |-|
    Apply hamiltonian:               9.867     9.867   2.3% ||
   diagonalize:                      0.403     0.403   0.1% |
   rotate_psi:                      37.816    37.816   8.7% |--|
  calc. matrices:                   79.631    69.635  16.0% |-----|
   Apply hamiltonian:                9.996     9.996   2.3% ||
  diagonalize:                       1.535     1.535   0.4% |
  rotate_psi:                       37.273    37.273   8.6% |--|
 Density:                            2.592     0.002   0.0% |
  Atomic density matrices:           0.232     0.232   0.1% |
  Mix:                               1.612     1.612   0.4% |
  Multipole moments:                 0.057     0.057   0.0% |
  Pseudo density:                    0.689     0.687   0.2% |
   Symmetrize density:               0.002     0.002   0.0% |
 Hamiltonian:                      142.449     0.010   0.0% |
  Atomic:                           98.219     0.239   0.1% |
   XC Correction:                   97.980    97.980  22.6% |--------|
  Calculate atomic Hamiltonians:     0.942     0.942   0.2% |
  Communicate:                       0.001     0.001   0.0% |
  Hartree integrate/restrict:        0.506     0.506   0.1% |
  Poisson:                          23.985    23.985   5.5% |-|
  XC 3D grid:                       18.605    18.605   4.3% |-|
  vbar:                              0.181     0.181   0.0% |
 Orthonormalize:                     0.847     0.000   0.0% |
  calc_s_matrix:                     0.145     0.145   0.0% |
  inverse-cholesky:                  0.001     0.001   0.0% |
  projections:                       0.480     0.480   0.1% |
  rotate_psi_s:                      0.220     0.220   0.1% |
Set symmetry:                        0.001     0.001   0.0% |
Other:                               1.518     1.518   0.3% |
-----------------------------------------------------------
Total:                                       434.336 100.0%

Memory usage: 306.44 MiB
Date: Fri Apr 19 17:59:40 2019
