
  ___ ___ ___ _ _ _  
 |   |   |_  | | | | 
 | | | | | . | | | | 
 |__ |  _|___|_____|  1.4.0
 |___|_|             

User:   murakami@tssm1.eng.shizuoka.ac.jp
Date:   Fri Apr 19 13:03:06 2019
Arch:   x86_64
Pid:    17665
Python: 3.6.5
gpaw:   /home/murakami/.local/lib/python3.6/site-packages/gpaw
_gpaw:  /home/murakami/.local/lib/python3.6/site-packages/
        _gpaw.cpython-36m-x86_64-linux-gnu.so
ase:    /home/murakami/.local/lib/python3.6/site-packages/ase (version 3.16.2)
numpy:  /home/murakami/.local/lib/python3.6/site-packages/numpy (version 1.15.2)
scipy:  /home/murakami/.local/lib/python3.6/site-packages/scipy (version 1.1.0)
units:  Angstrom and eV
cores:  1

Input parameters:
  kpts: {size: (1, 1, 1)}
  maxiter: 300
  xc: PBE

System changes: positions, numbers, cell, pbc, initial_charges, initial_magmoms 

Initialize ...

Fe-setup:
  name: Iron
  id: 37abbd8d6c3c35915a9b583b742da910
  Z: 26
  valence: 8
  core: 18
  charge: 0.0
  file: /home/murakami/Public/gpaw-setups-0.9.20000/Fe.PBE.gz
  cutoffs: 1.06(comp), 2.06(filt), 2.67(core), lmax=2
  valence states:
                energy  radius
    4s(2.00)    -5.291   1.164
    4p(0.00)    -1.326   1.058
    3d(6.00)    -7.505   1.058
    *s          21.920   1.164
    *p          25.885   1.058
    *d          19.706   1.058

  Using partial waves for Fe as LCAO basis

O-setup:
  name: Oxygen
  id: 32ecd46bf208036f09c70b0ec9a88b78
  Z: 8
  valence: 6
  core: 2
  charge: 0.0
  file: /home/murakami/Public/gpaw-setups-0.9.20000/O.PBE.gz
  cutoffs: 0.67(comp), 1.17(filt), 0.83(core), lmax=2
  valence states:
                energy  radius
    2s(2.00)   -23.961   0.688
    2p(4.00)    -9.029   0.598
    *s           3.251   0.688
    *p          18.182   0.598
    *d           0.000   0.619

  Using partial waves for O as LCAO basis

F-setup:
  name: Fluorine
  id: 9cd46ba2a61e170ad72278be75b55cc0
  Z: 9
  valence: 7
  core: 2
  charge: 0.0
  file: /home/murakami/Public/gpaw-setups-0.9.20000/F.PBE.gz
  cutoffs: 0.64(comp), 1.14(filt), 0.74(core), lmax=2
  valence states:
                energy  radius
    2s(2.00)   -29.898   0.635
    2p(5.00)   -11.110   0.635
    *s          -2.687   0.635
    *p          16.102   0.635
    *d           0.000   0.635

  Using partial waves for F as LCAO basis

Reference energy: -479224.937077

Spin-paired calculation

Occupation numbers:
  Fermi-Dirac: width=0.1000 eV

Convergence criteria:
  Maximum total energy change: 0.0005 eV / electron
  Maximum integral of absolute density change: 0.0001 electrons
  Maximum integral of absolute eigenstate change: 4e-08 eV^2
  Maximum number of iterations: 300

Symmetries present (total): 4

  ( 1  0  0)  ( 1  0  0)  (-1  0  0)  (-1  0  0)
  ( 0  1  0)  ( 0 -1  0)  ( 0  1  0)  ( 0 -1  0)
  ( 0  0  1)  ( 0  0  1)  ( 0  0  1)  ( 0  0  1)

1 k-point (Gamma)
1 k-point in the irreducible part of the Brillouin zone
       k-points in crystal coordinates                weights
   0:     0.00000000    0.00000000    0.00000000          1/1

Wave functions: Uniform real-space grid
  Kinetic energy operator: 6*3+1=19 point O(h^6) finite-difference Laplacian
  ScaLapack parameters: grid=1x1, blocksize=None 

Eigensolver
   Davidson(niter=1, smin=None, normalize=True) 

Densities:
  Coarse grid: 16*104*32 grid
  Fine grid: 32*208*64 grid
  Total Charge: 0.000000 

Density mixing:
  Method: separate
  Backend: pulay
  Linear mixing parameter: 0.05
  Mixing with 5 old densities
  Damping of long wave oscillations: 50 

Hamiltonian:
  XC and Coulomb potentials evaluated on a 32*208*64 grid
  Using the PBE Exchange-Correlation functional
  Interpolation: tri-quintic (5. degree polynomial)
  Poisson solver: Jacobi solver with 5 multi-grid levels
    Coarsest grid: 2 x 13 x 4 points
    Stencil: 6*3+1=19 point O(h^6) finite-difference Laplacian
    Max iterations: 1000
    Tolerance: 2.000000e-10 

Memory estimate:
  Process memory now: 1068.87 MiB
  Calculator: 269.53 MiB
    Density: 69.97 MiB
      Arrays: 10.56 MiB
      Localized functions: 55.35 MiB
      Mixer: 4.06 MiB
    Hamiltonian: 19.00 MiB
      Arrays: 6.91 MiB
      XC: 0.00 MiB
      Poisson: 7.89 MiB
      vbar: 4.20 MiB
    Wavefunctions: 180.56 MiB
      Arrays psit_nG: 82.88 MiB
      Eigensolver: 88.09 MiB
      Projections: 0.82 MiB
      Projectors: 8.78 MiB

Total number of cores used: 1

Number of atoms: 36
Number of atomic orbitals: 204
Number of bands in calculation: 204
Bands to converge: occupied states only
Number of valence electrons: 262

... initialized

Initializing position-dependent things.

Density initialized from atomic densities
Creating initial wave functions:
  204 bands from LCAO basis set

              .-------.  
             /|  F    |  
            / |       |  
           /  |       |  
          / F |       |  
         /    |  F    |  
        /   Fe|       |  
       /  FFe |F      |  
      /O      Fe------.  
     /      F/       /   
    /  Fe F F   Fe  /    
   / F     F   F   /     
  /F  F   Fe      /      
 *     F Fe  F   /       
 |   F  F       /        
 F Fe  /       /         
 |    F   F   /          
 | F Fe      /           
 O  /   F   /            
 | /   Fe  /             
 |/       /              
 Fe------*               

Positions:
   0 Fe     0.000000    3.425973    3.405553    ( 0.0000,  0.0000,  0.0000)
   1 Fe     0.000000   17.123411    3.405553    ( 0.0000,  0.0000,  0.0000)
   2 Fe     0.000000   13.700665    0.009448    ( 0.0000,  0.0000,  0.0000)
   3 Fe     0.000000    6.848719    0.009448    ( 0.0000,  0.0000,  0.0000)
   4 Fe     1.626314    3.411629    0.000027    ( 0.0000,  0.0000,  0.0000)
   5 Fe     1.626314   17.137755    0.000027    ( 0.0000,  0.0000,  0.0000)
   6 Fe     1.626314   13.686321    3.396133    ( 0.0000,  0.0000,  0.0000)
   7 Fe     1.626314    6.863063    3.396133    ( 0.0000,  0.0000,  0.0000)
   8 Fe     0.000000    0.000000    0.082607    ( 0.0000,  0.0000,  0.0000)
   9 Fe     0.000000   10.274692    3.478712    ( 0.0000,  0.0000,  0.0000)
  10 Fe     1.626314    0.000000    3.208640    ( 0.0000,  0.0000,  0.0000)
  11 Fe     1.626314   10.274692    6.604746    ( 0.0000,  0.0000,  0.0000)
  12 O      0.000000    0.000000    2.135213    ( 0.0000,  0.0000,  0.0000)
  13 O      0.000000   10.274692    5.531319    ( 0.0000,  0.0000,  0.0000)
  14 F      0.000000    3.455769    1.380850    ( 0.0000,  0.0000,  0.0000)
  15 F      0.000000   17.093615    1.380850    ( 0.0000,  0.0000,  0.0000)
  16 F      0.000000   13.730461    4.776955    ( 0.0000,  0.0000,  0.0000)
  17 F      0.000000    6.818923    4.776955    ( 0.0000,  0.0000,  0.0000)
  18 F      0.000000    3.460146    5.429327    ( 0.0000,  0.0000,  0.0000)
  19 F      0.000000   17.089238    5.429327    ( 0.0000,  0.0000,  0.0000)
  20 F      0.000000   13.734838    2.033221    ( 0.0000,  0.0000,  0.0000)
  21 F      0.000000    6.814546    2.033221    ( 0.0000,  0.0000,  0.0000)
  22 F      1.626314    1.405002    6.767331    ( 0.0000,  0.0000,  0.0000)
  23 F      1.626314   19.144382    6.767331    ( 0.0000,  0.0000,  0.0000)
  24 F      1.626314   11.679694    3.371226    ( 0.0000,  0.0000,  0.0000)
  25 F      1.626314    8.869690    3.371226    ( 0.0000,  0.0000,  0.0000)
  26 F      1.626314    2.017621    3.434678    ( 0.0000,  0.0000,  0.0000)
  27 F      1.626314   18.531763    3.434678    ( 0.0000,  0.0000,  0.0000)
  28 F      1.626314   12.292313    0.038573    ( 0.0000,  0.0000,  0.0000)
  29 F      1.626314    8.257071    0.038573    ( 0.0000,  0.0000,  0.0000)
  30 F      1.626314    4.809789    3.406464    ( 0.0000,  0.0000,  0.0000)
  31 F      1.626314   15.739595    3.406464    ( 0.0000,  0.0000,  0.0000)
  32 F      1.626314   15.084481    0.010358    ( 0.0000,  0.0000,  0.0000)
  33 F      1.626314    5.464903    0.010358    ( 0.0000,  0.0000,  0.0000)
  34 F      0.000000    0.000000    4.718827    ( 0.0000,  0.0000,  0.0000)
  35 F      0.000000   10.274692    1.322722    ( 0.0000,  0.0000,  0.0000)

Unit cell:
           periodic     x           y           z      points  spacing
  1. axis:    yes    3.252628    0.000000    0.000000    16     0.2033
  2. axis:    yes    0.000000   20.549384    0.000000   104     0.1976
  3. axis:    yes    0.000000    0.000000    6.792211    32     0.2123

  Lengths:   3.252628  20.549384   6.792211
  Angles:   90.000000  90.000000  90.000000

Effective grid spacing dv^(1/3) = 0.2043

                     log10-error:    total        iterations:
           time      wfs    density  energy       fermi  poisson
iter:   1  13:03:31  +1.74   +inf  -213.458029    3      19     
iter:   2  13:03:39  +0.20   +inf  -214.355980    3             
iter:   3  13:03:47  -0.38   +inf  -214.615278    2             
iter:   4  13:03:57  -0.64  -1.12  -212.368547    3      9      
iter:   5  13:04:08  -0.25  -1.16  -226.360544    36     10     
iter:   6  13:04:19  -0.30  -1.17  -215.909054    4      10     
iter:   7  13:04:29  -0.36  -1.29  -208.171630    3      8      
iter:   8  13:04:40  -0.86  -1.40  -206.996020    4      8      
iter:   9  13:04:50  -1.11  -1.45  -206.858305    4      7      
iter:  10  13:05:01  -1.47  -1.44  -206.848783    3      10     
iter:  11  13:05:11  -1.61  -1.45  -211.167103    3      12     
iter:  12  13:05:22  -1.42  -1.34  -207.751318    3      13     
iter:  13  13:05:33  -1.56  -1.44  -206.666931    2      10     
iter:  14  13:05:43  -1.49  -1.49  -206.557840    4      9      
iter:  15  13:05:54  -1.30  -1.56  -207.868707    3      8      
iter:  16  13:06:04  -1.28  -1.52  -207.322518    3      8      
iter:  17  13:06:15  -1.29  -1.56  -213.205954    3      12     
iter:  18  13:06:26  -1.47  -1.36  -207.902782    2      13     
iter:  19  13:06:37  -1.31  -1.59  -206.900457    3      9      
iter:  20  13:06:48  -1.79  -1.61  -206.246145    3      8      
iter:  21  13:06:58  -2.37  -1.68  -206.350059    2      7      
iter:  22  13:07:09  -2.71  -1.69  -206.298591    3      6      
iter:  23  13:07:22  -1.78  -1.70  -217.317324    3      13     
iter:  24  13:07:35  -1.39  -1.35  -207.068296    3      13     
iter:  25  13:07:47  -1.77  -1.68  -207.077644    3      8      
iter:  26  13:08:00  -1.64  -1.73  -206.807104    3      7      
iter:  27  13:08:12  -1.71  -1.74  -207.697024    3      10     
iter:  28  13:08:25  -1.79  -1.69  -206.248682    3      10     
iter:  29  13:08:38  -2.53  -1.82  -206.426178    2      9      
iter:  30  13:08:51  -2.60  -1.83  -206.216441    3      9      
iter:  31  13:09:02  -2.05  -1.86  -206.740875    3      8      
iter:  32  13:09:13  -1.72  -1.87  -206.450116    3      9      
iter:  33  13:09:24  -2.00  -2.14  -206.293561    3      8      
iter:  34  13:09:34  -1.89  -2.28  -206.760123    3      9      
iter:  35  13:09:45  -2.15  -2.03  -206.388314    3      10     
iter:  36  13:09:56  -2.75  -2.23  -206.195443    2      9      
iter:  37  13:10:06  -3.25  -2.45  -206.161280    2      6      
iter:  38  13:10:17  -3.57  -2.51  -206.157582    2      6      
iter:  39  13:10:28  -3.48  -2.56  -206.160613    2      5      
iter:  40  13:10:38  -3.34  -2.58  -206.164974    2      6      
iter:  41  13:10:49  -3.19  -2.60  -206.184677    2      7      
iter:  42  13:10:59  -3.22  -2.68  -206.301499    2      8      
iter:  43  13:11:10  -2.97  -2.33  -206.175840    2      8      
iter:  44  13:11:21  -3.11  -2.61  -206.158673    2      6      
iter:  45  13:11:32  -3.67  -2.82  -206.150557    2      4      
iter:  46  13:11:42  -4.23  -2.89  -206.151860    2      4      
iter:  47  13:11:52  -4.83  -2.91  -206.149865    2      4      
iter:  48  13:12:03  -4.25  -2.94  -206.160128    2      5      
iter:  49  13:12:14  -4.02  -2.84  -206.174476    2      6      
iter:  50  13:12:25  -3.93  -2.78  -206.154724    2      6      
iter:  51  13:12:35  -3.88  -2.98  -206.153561    2      6      
iter:  52  13:12:46  -3.64  -3.05  -206.151450    2      5      
iter:  53  13:12:56  -3.75  -2.85  -206.152849    2      5      
iter:  54  13:13:07  -4.50  -3.13  -206.150094    2      4      
iter:  55  13:13:18  -4.51  -3.17  -206.151981    2      5      
iter:  56  13:13:29  -4.60  -2.97  -206.149803    2      4      
iter:  57  13:13:39  -5.14  -3.21  -206.149726    2      4      
iter:  58  13:13:50  -4.73  -3.26  -206.152668    2      5      
iter:  59  13:14:01  -4.20  -3.25  -206.147238    2      5      
iter:  60  13:14:12  -4.18  -3.04  -206.151127    2      5      
iter:  61  13:14:22  -4.51  -3.19  -206.149812    2      5      
iter:  62  13:14:33  -4.60  -3.19  -206.151417    2      5      
iter:  63  13:14:43  -4.79  -3.26  -206.149087    2      5      
iter:  64  13:14:54  -5.25  -3.51  -206.147425    2      3      
iter:  65  13:15:04  -5.61  -3.62  -206.148465    2      4      
iter:  66  13:15:15  -5.10  -3.68  -206.146477    2      4      
iter:  67  13:15:25  -5.00  -3.55  -206.147731    2      4      
iter:  68  13:15:35  -5.57  -3.70  -206.146848    2      4      
iter:  69  13:15:46  -5.54  -3.68  -206.147283    1      3      
iter:  70  13:15:56  -5.87  -3.84  -206.148039    2      3      
iter:  71  13:16:06  -6.25  -3.85  -206.147348    2      3      
iter:  72  13:16:17  -6.53  -3.88  -206.147143    2      3      
iter:  73  13:16:27  -6.13  -3.93  -206.147577    2      3      
iter:  74  13:16:37  -6.12  -3.91  -206.147444    2      3      
iter:  75  13:16:47  -6.20  -3.99  -206.147425    2      3      
iter:  76  13:16:58  -6.18  -4.05  -206.146525    2      3      
iter:  77  13:17:08  -5.92  -3.97  -206.147414    2      3      
iter:  78  13:17:19  -6.02  -3.82  -206.147357    2      3      
iter:  79  13:17:30  -6.68  -4.20  -206.147445    2      2      
iter:  80  13:17:40  -6.91  -4.17  -206.147341    2      2      
iter:  81  13:17:50  -7.21  -4.10  -206.147326    1      1      
iter:  82  13:18:00  -7.43  -4.14  -206.147533    1      2      

Converged after 82 iterations.

Dipole moment: (-25.019058, -31.054256, -33.937789) |e|*Ang

Energy contributions relative to reference atoms: (reference = -479224.937077)

Kinetic:       +175.064843
Potential:     -179.349887
External:        +0.000000
XC:            -212.501793
Entropy (-ST):   -1.407981
Local:          +11.343294
--------------------------
Free energy:   -206.851524
Extrapolated:  -206.147533

Fermi level: 3.83621

 Band  Eigenvalues  Occupancy
    0    -20.78617    2.00000
    1    -20.77645    2.00000
    2    -20.64086    2.00000
    3    -20.62038    2.00000
    4    -20.41673    2.00000
    5    -20.40415    2.00000
    6    -20.37972    2.00000
    7    -20.34939    2.00000
    8    -20.34637    2.00000
    9    -20.33321    2.00000
   10    -20.33030    2.00000
   11    -20.32953    2.00000
   12    -20.27480    2.00000
   13    -20.24458    2.00000
   14    -20.21078    2.00000
   15    -20.18757    2.00000
   16    -20.18525    2.00000
   17    -20.17750    2.00000
   18    -20.16671    2.00000
   19    -20.14198    2.00000
   20    -19.01928    2.00000
   21    -19.01881    2.00000
   22    -14.50350    2.00000
   23    -14.50283    2.00000
   24     -4.28223    2.00000
   25     -4.19287    2.00000
   26     -4.02121    2.00000
   27     -3.94924    2.00000
   28     -3.72296    2.00000
   29     -3.53244    2.00000
   30     -3.49457    2.00000
   31     -3.44321    2.00000
   32     -3.33128    2.00000
   33     -3.15622    2.00000
   34     -2.72670    2.00000
   35     -2.70116    2.00000
   36     -2.61394    2.00000
   37     -2.56850    2.00000
   38     -2.48183    2.00000
   39     -2.45370    2.00000
   40     -2.41443    2.00000
   41     -2.41401    2.00000
   42     -2.39655    2.00000
   43     -2.39546    2.00000
   44     -2.39519    2.00000
   45     -2.36760    2.00000
   46     -2.33374    2.00000
   47     -2.32691    2.00000
   48     -2.32175    2.00000
   49     -2.30119    2.00000
   50     -2.24542    2.00000
   51     -2.22497    2.00000
   52     -2.21599    2.00000
   53     -2.20175    2.00000
   54     -2.19381    2.00000
   55     -2.19272    2.00000
   56     -2.18906    2.00000
   57     -2.18428    2.00000
   58     -2.14730    2.00000
   59     -2.12379    2.00000
   60     -2.02552    2.00000
   61     -1.95124    2.00000
   62     -1.94131    2.00000
   63     -1.79211    2.00000
   64     -1.71283    2.00000
   65     -1.69774    2.00000
   66     -1.65262    2.00000
   67     -1.61575    2.00000
   68     -1.58711    2.00000
   69     -1.58064    2.00000
   70     -1.55365    2.00000
   71     -1.48081    2.00000
   72     -1.38036    2.00000
   73     -1.34433    2.00000
   74     -1.32316    2.00000
   75     -1.28533    2.00000
   76     -1.27178    2.00000
   77     -1.21854    2.00000
   78     -1.21537    2.00000
   79     -1.21495    2.00000
   80     -1.18270    2.00000
   81     -1.13828    2.00000
   82     -1.12507    2.00000
   83     -1.07882    2.00000
   84     -0.96882    2.00000
   85     -0.93651    2.00000
   86     -0.77374    2.00000
   87     -0.71537    2.00000
   88     -0.11908    2.00000
   89     -0.11579    2.00000
   90     -0.10433    2.00000
   91     -0.06289    2.00000
   92      0.08869    2.00000
   93      0.09124    2.00000
   94      0.65614    2.00000
   95      0.66431    2.00000
   96      2.81766    1.99992
   97      2.85513    1.99989
   98      2.88412    1.99985
   99      2.90130    1.99983
  100      2.90996    1.99981
  101      2.95641    1.99970
  102      2.96866    1.99966
  103      2.97302    1.99964
  104      2.98426    1.99960
  105      2.99653    1.99955
  106      3.05464    1.99919
  107      3.06208    1.99913
  108      3.15860    1.99772
  109      3.15918    1.99771
  110      3.16411    1.99759
  111      3.16455    1.99758
  112      3.22587    1.99554
  113      3.22718    1.99548
  114      3.23297    1.99521
  115      3.24122    1.99480
  116      3.24473    1.99462
  117      3.29248    1.99133
  118      3.30223    1.99045
  119      3.30649    1.99004
  120      3.33417    1.98688
  121      3.35243    1.98427
  122      3.36047    1.98297
  123      3.46830    1.95075
  124      3.48945    1.93950
  125      3.56397    1.87666
  126      3.63618    1.76165
  127      3.65341    1.72304
  128      3.75520    1.38424
  129      3.76462    1.34340
  130      3.79420    1.20697
  131      3.85073    0.92751
  132      3.91152    0.64026
  133      3.95818    0.45595
  134      3.97630    0.39534
  135      4.08242    0.15711
  136      4.15192    0.08162
  137      4.20731    0.04774
  138      4.22677    0.03946
  139      4.22960    0.03838
  140      4.24341    0.03351
  141      4.24675    0.03243
  142      4.25427    0.03012
  143      4.34493    0.01227
  144      4.35035    0.01163
  145      4.44358    0.00459
  146      4.44360    0.00459
  147      4.44523    0.00452
  148      4.44528    0.00452
  149      4.47940    0.00321
  150      4.59582    0.00100
  151      4.96442    0.00003
  152      5.14486    0.00000
  153      5.27155    0.00000
  154      5.35422    0.00000
  155      5.35483    0.00000
  156      5.99001    0.00000
  157      6.47589    0.00000
  158      6.81185    0.00000
  159      8.11387    0.00000
  160      8.31895    0.00000
  161      9.64717    0.00000
  162      9.94263    0.00000
  163     10.04605    0.00000
  164     10.35056    0.00000
  165     10.36412    0.00000
  166     10.36745    0.00000
  167     10.45135    0.00000
  168     10.72859    0.00000
  169     10.75264    0.00000
  170     10.91557    0.00000
  171     11.02652    0.00000
  172     11.37788    0.00000
  173     11.52121    0.00000
  174     11.65063    0.00000
  175     12.03992    0.00000
  176     12.10741    0.00000
  177     12.84343    0.00000
  178     13.08688    0.00000
  179     13.40807    0.00000
  180     14.36100    0.00000
  181     14.51483    0.00000
  182     14.95656    0.00000
  183     15.00448    0.00000
  184     15.14448    0.00000
  185     15.46774    0.00000
  186     15.61991    0.00000
  187     15.81391    0.00000
  188     16.20872    0.00000
  189     16.28593    0.00000
  190     16.43266    0.00000
  191     16.45021    0.00000
  192     16.47391    0.00000
  193     16.95249    0.00000
  194     16.96839    0.00000
  195     16.97929    0.00000
  196     16.98929    0.00000
  197     17.93260    0.00000
  198     18.11134    0.00000
  199     18.26541    0.00000
  200     18.62710    0.00000
  201     18.77327    0.00000
  202     18.99504    0.00000
  203     19.08244    0.00000

Timing:                              incl.     excl.
-----------------------------------------------------------
Hamiltonian:                         2.824     0.000   0.0% |
 Atomic:                             1.601     0.003   0.0% |
  XC Correction:                     1.597     1.597   0.2% |
 Calculate atomic Hamiltonians:      0.015     0.015   0.0% |
 Communicate:                        0.000     0.000   0.0% |
 Hartree integrate/restrict:         0.008     0.008   0.0% |
 Initialize Hamiltonian:             0.000     0.000   0.0% |
 Poisson:                            0.862     0.862   0.1% |
 XC 3D grid:                         0.336     0.336   0.0% |
 vbar:                               0.003     0.003   0.0% |
LCAO initialization:                10.474     0.230   0.0% |
 LCAO eigensolver:                   1.407     0.000   0.0% |
  Calculate projections:             0.008     0.008   0.0% |
  DenseAtomicCorrection:             0.008     0.008   0.0% |
  Distribute overlap matrix:         0.000     0.000   0.0% |
  Orbital Layouts:                   0.025     0.025   0.0% |
  Potential matrix:                  1.365     1.365   0.2% |
 LCAO to grid:                       7.899     7.899   0.9% |
 Set positions (LCAO WFS):           0.939     0.000   0.0% |
  Basic WFS set positions:           0.003     0.003   0.0% |
  Basis functions set positions:     0.000     0.000   0.0% |
  TCI: Calculate S, T, P:            0.935     0.935   0.1% |
SCF-cycle:                         879.692     0.067   0.0% |
 Davidson:                         688.434   145.241  16.2% |-----|
  Apply hamiltonian:                16.776    16.776   1.9% ||
  Subspace diag:                   186.729     0.013   0.0% |
   calc_h_matrix:                   73.762    56.875   6.4% |--|
    Apply hamiltonian:              16.887    16.887   1.9% ||
   diagonalize:                      0.978     0.978   0.1% |
   rotate_psi:                     111.976   111.976  12.5% |----|
  calc. matrices:                  223.741   206.885  23.1% |--------|
   Apply hamiltonian:               16.856    16.856   1.9% ||
  diagonalize:                       3.106     3.106   0.3% |
  rotate_psi:                      112.841   112.841  12.6% |----|
 Density:                            4.737     0.002   0.0% |
  Atomic density matrices:           0.383     0.383   0.0% |
  Mix:                               2.002     2.002   0.2% |
  Multipole moments:                 0.071     0.071   0.0% |
  Pseudo density:                    2.279     1.430   0.2% |
   Symmetrize density:               0.849     0.849   0.1% |
 Hamiltonian:                      184.709     0.010   0.0% |
  Atomic:                          131.266     0.300   0.0% |
   XC Correction:                  130.966   130.966  14.6% |-----|
  Calculate atomic Hamiltonians:     1.198     1.198   0.1% |
  Communicate:                       0.001     0.001   0.0% |
  Hartree integrate/restrict:        0.545     0.545   0.1% |
  Poisson:                          25.278    25.278   2.8% ||
  XC 3D grid:                       26.173    26.173   2.9% ||
  vbar:                              0.239     0.239   0.0% |
 Orthonormalize:                     1.745     0.000   0.0% |
  calc_s_matrix:                     0.442     0.442   0.0% |
  inverse-cholesky:                  0.002     0.002   0.0% |
  projections:                       0.600     0.600   0.1% |
  rotate_psi_s:                      0.701     0.701   0.1% |
Set symmetry:                        0.002     0.002   0.0% |
Other:                               1.042     1.042   0.1% |
-----------------------------------------------------------
Total:                                       894.034 100.0%

Memory usage: 1.04 GiB
Date: Fri Apr 19 13:18:00 2019
