<?xml version="1.0" encoding="ISO-8859-1"?>
<modeling>
 <generator>
  <i name="program" type="string">vasp </i>
  <i name="version" type="string">5.3.5  </i>
  <i name="subversion" type="string">31Mar14 (build Aug 29 2014 19:41:47) complex                          parallel </i>
  <i name="platform" type="string">LinuxIFC </i>
  <i name="date" type="string">2019 04 11 </i>
  <i name="time" type="string">13:04:27 </i>
 </generator>
 <incar>
  <i type="string" name="SYSTEM"> Fe4OF7_var_31</i>
  <i type="int" name="ISTART">     0</i>
  <i type="string" name="PREC">normal</i>
  <i type="string" name="ALGO"> VeryFast</i>
  <i type="int" name="ISPIN">     1</i>
  <i type="int" name="ICHARG">     2</i>
  <i type="int" name="NELM">   300</i>
  <i type="int" name="ISYM">     0</i>
  <i type="logical" name="LWAVE"> F  </i>
  <i type="int" name="NELM">   300</i>
 </incar>
 <kpoints>
  <generation param="Gamma">
   <v type="int" name="divisions">       1        1        1 </v>
   <v name="usershift">      0.00000000       0.00000000       0.00000000 </v>
   <v name="genvec1">      1.00000000       0.00000000       0.00000000 </v>
   <v name="genvec2">      0.00000000       1.00000000       0.00000000 </v>
   <v name="genvec3">     -0.00000000       0.00000000       1.00000000 </v>
   <v name="shift">      0.00000000       0.00000000       0.00000000 </v>
  </generation>
  <varray name="kpointlist" >
   <v>       0.00000000       0.00000000       0.00000000 </v>
  </varray>
  <varray name="weights" >
   <v>       1.00000000 </v>
  </varray>
 </kpoints>
 <parameters>
  <separator name="general" >
   <i type="string" name="SYSTEM">Fe4OF7_var_31</i>
   <i type="logical" name="LCOMPAT"> F  </i>
  </separator>
  <separator name="electronic" >
   <i type="string" name="PREC">normal</i>
   <i name="ENMAX">    400.00000000</i>
   <i name="ENAUG">    613.61400000</i>
   <i name="EDIFF">      0.00010000</i>
   <i type="int" name="IALGO">    48</i>
   <i type="int" name="IWAVPR">    10</i>
   <i type="int" name="NBANDS">   104</i>
   <i name="NELECT">    174.00000000</i>
   <i type="int" name="TURBO">     0</i>
   <i type="int" name="IRESTART">     0</i>
   <i type="int" name="NREBOOT">     0</i>
   <i type="int" name="NMIN">     0</i>
   <i name="EREF">      0.00000000</i>
   <separator name="electronic smearing" >
    <i type="int" name="ISMEAR">     1</i>
    <i name="SIGMA">      0.20000000</i>
    <i name="KSPACING">      0.50000000</i>
    <i type="logical" name="KGAMMA"> T  </i>
   </separator>
   <separator name="electronic projectors" >
    <i type="logical" name="LREAL"> F  </i>
    <v name="ROPT">      0.00000000      0.00000000      0.00000000</v>
    <i type="int" name="LMAXPAW">  -100</i>
    <i type="int" name="LMAXMIX">     2</i>
    <i type="logical" name="NLSPLINE"> F  </i>
   </separator>
   <separator name="electronic startup" >
    <i type="int" name="ISTART">     0</i>
    <i type="int" name="ICHARG">     2</i>
    <i type="int" name="INIWAV">     1</i>
   </separator>
   <separator name="electronic spin" >
    <i type="int" name="ISPIN">     1</i>
    <i type="logical" name="LNONCOLLINEAR"> F  </i>
    <v name="MAGMOM">      1.00000000      1.00000000      1.00000000      1.00000000      1.00000000      1.00000000      1.00000000      1.00000000      1.00000000      1.00000000      1.00000000      1.00000000      1.00000000      1.00000000      1.00000000      1.00000000      1.00000000      1.00000000      1.00000000      1.00000000
      1.00000000      1.00000000      1.00000000      1.00000000</v>
    <i name="NUPDOWN">     -1.00000000</i>
    <i type="logical" name="LSORBIT"> F  </i>
    <v name="SAXIS">      0.00000000      0.00000000      1.00000000</v>
    <i type="logical" name="LSPIRAL"> F  </i>
    <v name="QSPIRAL">      0.00000000      0.00000000      0.00000000</v>
    <i type="logical" name="LZEROZ"> F  </i>
   </separator>
   <separator name="electronic exchange-correlation" >
    <i type="logical" name="LASPH"> F  </i>
    <i type="logical" name="LMETAGGA"> F  </i>
   </separator>
   <separator name="electronic convergence" >
    <i type="int" name="NELM">   300</i>
    <i type="int" name="NELMDL">   -12</i>
    <i type="int" name="NELMIN">     2</i>
    <i name="ENINI">    400.00000000</i>
    <separator name="electronic convergence detail" >
     <i type="logical" name="LDIAG"> T  </i>
     <i type="logical" name="LSUBROT"> F  </i>
     <i name="WEIMIN">      0.00000000</i>
     <i name="EBREAK">      0.00000024</i>
     <i name="DEPER">      0.30000000</i>
     <i type="int" name="NRMM">     4</i>
     <i name="TIME">      0.40000000</i>
    </separator>
   </separator>
   <separator name="electronic mixer" >
    <i name="AMIX">      0.40000000</i>
    <i name="BMIX">      1.00000000</i>
    <i name="AMIN">      0.10000000</i>
    <i name="AMIX_MAG">      1.60000000</i>
    <i name="BMIX_MAG">      1.00000000</i>
    <separator name="electronic mixer details" >
     <i type="int" name="IMIX">     4</i>
     <i type="int" name="MAXMIX">   -45</i>
     <i name="WC">    100.00000000</i>
     <i type="int" name="INIMIX">     1</i>
     <i type="int" name="MIXPRE">     1</i>
     <i type="int" name="MREMOVE">     5</i>
    </separator>
   </separator>
   <separator name="electronic dipolcorrection" >
    <i type="logical" name="LDIPOL"> F  </i>
    <i type="logical" name="LMONO"> F  </i>
    <i type="int" name="IDIPOL">     0</i>
    <i name="EPSILON">      1.00000000</i>
    <v name="DIPOL">   -100.00000000   -100.00000000   -100.00000000</v>
    <i name="EFIELD">      0.00000000</i>
   </separator>
  </separator>
  <separator name="grids" >
   <i type="int" name="NGX">    28</i>
   <i type="int" name="NGY">    24</i>
   <i type="int" name="NGZ">    54</i>
   <i type="int" name="NGXF">    56</i>
   <i type="int" name="NGYF">    48</i>
   <i type="int" name="NGZF">   108</i>
   <i type="logical" name="ADDGRID"> F  </i>
  </separator>
  <separator name="ionic" >
   <i type="int" name="NSW">     0</i>
   <i type="int" name="IBRION">    -1</i>
   <i type="int" name="ISIF">     2</i>
   <i name="PSTRESS">      0.00000000</i>
   <i name="EDIFFG">      0.00100000</i>
   <i type="int" name="NFREE">     0</i>
   <i name="POTIM">      0.50000000</i>
   <i name="SMASS">     -3.00000000</i>
   <i name="SCALEE">      1.00000000</i>
  </separator>
  <separator name="ionic md" >
   <i name="TEBEG">      0.00010000</i>
   <i name="TEEND">      0.00010000</i>
   <i type="int" name="NBLOCK">     1</i>
   <i type="int" name="KBLOCK">     1</i>
   <i type="int" name="NPACO">   256</i>
   <i name="APACO">     16.00000000</i>
  </separator>
  <separator name="symmetry" >
   <i type="int" name="ISYM">     0</i>
   <i name="SYMPREC">      0.00001000</i>
  </separator>
  <separator name="dos" >
   <i type="logical" name="LORBIT"> F  </i>
   <v name="RWIGS">     -1.00000000     -1.00000000     -1.00000000</v>
   <i type="int" name="NEDOS">   301</i>
   <i name="EMIN">     10.00000000</i>
   <i name="EMAX">    -10.00000000</i>
   <i name="EFERMI">      0.00000000</i>
  </separator>
  <separator name="writing" >
   <i type="int" name="NWRITE">     2</i>
   <i type="logical" name="LWAVE"> F  </i>
   <i type="logical" name="LCHARG"> T  </i>
   <i type="logical" name="LPARD"> F  </i>
   <i type="logical" name="LVTOT"> F  </i>
   <i type="logical" name="LVHAR"> F  </i>
   <i type="logical" name="LELF"> F  </i>
   <i type="logical" name="LOPTICS"> F  </i>
   <v name="STM">      0.00000000      0.00000000      0.00000000      0.00000000      0.00000000      0.00000000      0.00000000</v>
  </separator>
  <separator name="performance" >
   <i type="int" name="NPAR">     4</i>
   <i type="int" name="NSIM">     4</i>
   <i type="int" name="NBLK">    -1</i>
   <i type="logical" name="LPLANE"> T  </i>
   <i type="logical" name="LSCALAPACK"> T  </i>
   <i type="logical" name="LSCAAWARE"> F  </i>
   <i type="logical" name="LSCALU"> F  </i>
   <i type="logical" name="LASYNC"> F  </i>
   <i type="logical" name="LORBITALREAL"> F  </i>
  </separator>
  <separator name="miscellaneous" >
   <i type="int" name="IDIOT">     3</i>
   <i type="logical" name="LMUSIC"> F  </i>
   <v name="POMASS">     55.84700000     16.00000000     18.99800000</v>
   <v name="DARWINR">      0.00000000      0.00000000      0.00000000</v>
   <v name="DARWINV">      1.00000000      1.00000000      1.00000000</v>
   <i type="logical" name="LCORR"> T  </i>
  </separator>
  <i type="logical" name="GGA_COMPAT"> T  </i>
  <i type="logical" name="LBERRY"> F  </i>
  <i type="int" name="ICORELEVEL">     0</i>
  <i type="logical" name="LDAU"> F  </i>
  <i type="int" name="I_CONSTRAINED_M">     0</i>
  <separator name="electronic exchange-correlation" >
   <i type="string" name="GGA">--</i>
   <i type="int" name="VOSKOWN">     0</i>
   <i type="logical" name="LHFCALC"> F  </i>
   <i type="string" name="PRECFOCK"></i>
   <i type="logical" name="LSYMGRAD"> F  </i>
   <i type="logical" name="LHFONE"> F  </i>
   <i type="logical" name="LRHFCALC"> F  </i>
   <i type="logical" name="LTHOMAS"> F  </i>
   <i type="logical" name="LMODELHF"> F  </i>
   <i name="ENCUT4O">     -1.00000000</i>
   <i type="int" name="EXXOEP">     0</i>
   <i type="int" name="FOURORBIT">     0</i>
   <i name="AEXX">      0.00000000</i>
   <i name="HFALPHA">      0.00000000</i>
   <i name="MCALPHA">      0.00000000</i>
   <i name="ALDAX">      1.00000000</i>
   <i name="AGGAX">      1.00000000</i>
   <i name="ALDAC">      1.00000000</i>
   <i name="AGGAC">      1.00000000</i>
   <i type="int" name="NKREDX">     1</i>
   <i type="int" name="NKREDY">     1</i>
   <i type="int" name="NKREDZ">     1</i>
   <i type="logical" name="SHIFTRED"> F  </i>
   <i type="logical" name="ODDONLY"> F  </i>
   <i type="logical" name="EVENONLY"> F  </i>
   <i type="int" name="LMAXFOCK">     0</i>
   <i type="int" name="NMAXFOCKAE">     0</i>
   <i type="logical" name="LFOCKAEDFT"> F  </i>
   <i name="HFSCREEN">      0.00000000</i>
   <i name="HFSCREENC">      0.00000000</i>
   <i type="int" name="NBANDSGWLOW">     0</i>
  </separator>
  <separator name="vdW DFT" >
   <i type="logical" name="LUSE_VDW"> F  </i>
   <i name="Zab_VDW">     -0.84910000</i>
   <i name="PARAM1">      0.12340000</i>
   <i name="PARAM2">      1.00000000</i>
   <i name="PARAM3">      0.00000000</i>
  </separator>
  <separator name="model GW" >
   <i type="int" name="MODEL_GW">     0</i>
   <i name="MODEL_EPS0">      7.46882445</i>
   <i name="MODEL_ALPHA">      1.00000000</i>
  </separator>
  <separator name="linear response parameters" >
   <i type="logical" name="LEPSILON"> F  </i>
   <i type="logical" name="LRPA"> F  </i>
   <i type="logical" name="LNABLA"> F  </i>
   <i type="logical" name="LVEL"> F  </i>
   <i type="int" name="KINTER">     0</i>
   <i name="CSHIFT">      0.10000000</i>
   <i name="OMEGAMAX">     -1.00000000</i>
   <i name="DEG_THRESHOLD">      0.00200000</i>
  </separator>
  <separator name="orbital magnetization" >
   <i type="logical" name="NUCIND"> F  </i>
   <v name="MAGPOS">      0.00000000      0.00000000      0.00000000</v>
   <i type="logical" name="LNICSALL"> T  </i>
   <i type="logical" name="ORBITALMAG"> F  </i>
   <i type="logical" name="LMAGBLOCH"> F  </i>
   <i type="logical" name="LCHIMAG"> F  </i>
   <i type="logical" name="LGAUGE"> T  </i>
   <i type="int" name="MAGATOM">     0</i>
   <v name="MAGDIPOL">      0.00000000      0.00000000      0.00000000</v>
   <v name="AVECCONST">      0.00000000      0.00000000      0.00000000</v>
  </separator>
  <separator name="response functions" >
   <i type="logical" name="LADDER"> F  </i>
   <i type="logical" name="LFXC"> F  </i>
   <i type="logical" name="LHARTREE"> T  </i>
   <i type="int" name="IBSE">     0</i>
   <i type="logical" name="LTCTE"> F  </i>
   <i type="logical" name="LTETE"> F  </i>
   <i type="logical" name="LTRIPLET"> F  </i>
   <i type="logical" name="LFXCEPS"> F  </i>
   <i type="logical" name="LFXHEG"> F  </i>
   <i type="logical" name="L2ORDER"> F  </i>
   <i type="logical" name="LUSEW"> F  </i>
   <i name="ENCUTGW">     -2.00000000</i>
   <i name="ENCUTGWSOFT">     -2.00000000</i>
   <i name="ENCUTLF">     -1.00000000</i>
   <i type="int" name="LMAXMP2">    -1</i>
   <i name="SCISSOR">      0.00000000</i>
   <i type="int" name="NOMEGA">     0</i>
   <i type="int" name="NOMEGAR">     0</i>
   <i type="int" name="NBANDSGW">    -1</i>
   <i type="int" name="NBANDSO">    -1</i>
   <i type="int" name="NBANDSV">    -1</i>
   <i type="int" name="NELM">   300</i>
   <i type="int" name="DIM">     3</i>
   <i type="int" name="ANTIRES">     0</i>
   <i name="OMEGAMAX">    -30.00000000</i>
   <i name="OMEGAMIN">    -30.00000000</i>
   <i name="OMEGATL">   -200.00000000</i>
   <i type="int" name="OMEGAGRID">     0</i>
   <i name="CSHIFT">     -0.10000000</i>
   <i type="logical" name="SELFENERGY"> F  </i>
   <i type="logical" name="LSPECTRAL"> F  </i>
   <i type="logical" name="ODDONLYGW"> F  </i>
   <i type="logical" name="EVENONLYGW"> F  </i>
   <i type="int" name="NKREDLFX">     1</i>
   <i type="int" name="NKREDLFY">     1</i>
   <i type="int" name="NKREDLFZ">     1</i>
   <i type="int" name="MAXMEM">  1800</i>
   <i type="int" name="TELESCOPE">     0</i>
   <i type="int" name="TAUPAR">     1</i>
  </separator>
  <separator name="External order field" >
   <i name="OFIELD_KAPPA">      0.00000000</i>
   <v name="OFIELD_K">      0.00000000      0.00000000      0.00000000</v>
   <i name="OFIELD_Q6_NEAR">      0.00000000</i>
   <i name="OFIELD_Q6_FAR">      0.00000000</i>
   <i name="OFIELD_A">      0.00000000</i>
  </separator>
 </parameters>
 <atominfo>
  <atoms>      24 </atoms>
  <types>       3 </types>
  <array name="atoms" >
   <dimension dim="1">ion</dimension>
   <field type="string">element</field>
   <field type="int">atomtype</field>
   <set>
    <rc><c>Fe</c><c>   1</c></rc>
    <rc><c>Fe</c><c>   1</c></rc>
    <rc><c>Fe</c><c>   1</c></rc>
    <rc><c>Fe</c><c>   1</c></rc>
    <rc><c>Fe</c><c>   1</c></rc>
    <rc><c>Fe</c><c>   1</c></rc>
    <rc><c>Fe</c><c>   1</c></rc>
    <rc><c>Fe</c><c>   1</c></rc>
    <rc><c>O </c><c>   2</c></rc>
    <rc><c>O </c><c>   2</c></rc>
    <rc><c>F </c><c>   3</c></rc>
    <rc><c>F </c><c>   3</c></rc>
    <rc><c>F </c><c>   3</c></rc>
    <rc><c>F </c><c>   3</c></rc>
    <rc><c>F </c><c>   3</c></rc>
    <rc><c>F </c><c>   3</c></rc>
    <rc><c>F </c><c>   3</c></rc>
    <rc><c>F </c><c>   3</c></rc>
    <rc><c>F </c><c>   3</c></rc>
    <rc><c>F </c><c>   3</c></rc>
    <rc><c>F </c><c>   3</c></rc>
    <rc><c>F </c><c>   3</c></rc>
    <rc><c>F </c><c>   3</c></rc>
    <rc><c>F </c><c>   3</c></rc>
   </set>
  </array>
  <array name="atomtypes" >
   <dimension dim="1">type</dimension>
   <field type="int">atomspertype</field>
   <field type="string">element</field>
   <field>mass</field>
   <field>valence</field>
   <field type="string">pseudopotential</field>
   <set>
    <rc><c>   8</c><c>Fe</c><c>     55.84700000</c><c>      8.00000000</c><c>  PAW_PBE Fe 06Sep2000                  </c></rc>
    <rc><c>   2</c><c>O </c><c>     16.00000000</c><c>      6.00000000</c><c>  PAW_PBE O 08Apr2002                   </c></rc>
    <rc><c>  14</c><c>F </c><c>     18.99800000</c><c>      7.00000000</c><c>  PAW_PBE F 08Apr2002                   </c></rc>
   </set>
  </array>
 </atominfo>
 <structure name="initialpos" >
  <crystal>
   <varray name="basis" >
    <v>       5.73591900       0.00000000      -0.79026700 </v>
    <v>       0.00000000       4.78544200       0.00000000 </v>
    <v>       0.00000000       0.00000000      10.88396600 </v>
   </varray>
   <i name="volume">    298.75297805 </i>
   <varray name="rec_basis" >
    <v>       0.17433998       0.00000000       0.00000000 </v>
    <v>       0.00000000       0.20896711       0.00000000 </v>
    <v>       0.01265854       0.00000000       0.09187827 </v>
   </varray>
  </crystal>
  <varray name="positions" >
   <v>       0.24699400       0.24850600       0.74623300 </v>
   <v>       0.24699400       0.75149400       0.24623300 </v>
   <v>       0.51485700       0.24497600       0.49879200 </v>
   <v>       0.51485700       0.75502400       0.99879200 </v>
   <v>       0.76069800       0.23127500       0.26486200 </v>
   <v>       0.75373900       0.76872500       0.76486200 </v>
   <v>       0.99659300       0.24137200       0.98992200 </v>
   <v>       0.99045900       0.75862800       0.49652900 </v>
   <v>       0.77857200       0.05847800       0.41725200 </v>
   <v>       0.77857200       0.94152200       0.91725200 </v>
   <v>       0.01370000       0.05755600       0.19124500 </v>
   <v>       0.01370000       0.94244400       0.68278600 </v>
   <v>       0.22224900       0.44944100       0.57080400 </v>
   <v>       0.22224900       0.55055900       0.07080400 </v>
   <v>       0.27923300       0.05174700       0.92203700 </v>
   <v>       0.27923300       0.95794700       0.42675800 </v>
   <v>       0.48187500       0.45353000       0.31584000 </v>
   <v>       0.48187500       0.54647000       0.81584000 </v>
   <v>       0.52253600       0.03560000       0.67416600 </v>
   <v>       0.52253600       0.96440000       0.17416600 </v>
   <v>       0.72562600       0.44302000       0.09109400 </v>
   <v>       0.72235300       0.56009900       0.59109400 </v>
   <v>       0.97343300       0.45764700       0.81960400 </v>
   <v>       0.97343300       0.55107800       0.31960400 </v>
  </varray>
 </structure>
 <calculation>
  <scstep>
   <time name="diag">    0.14    0.22</time>
   <time name="diis">    0.10    0.16</time>
   <time name="orth">    0.03    0.07</time>
   <time name="total">    0.47    0.67</time>
   <energy>
    <i name="alphaZ">    634.09262729 </i>
    <i name="ewald"> -10606.00297960 </i>
    <i name="hartreedc">  -4395.84885904 </i>
    <i name="XCdc">    595.53083047 </i>
    <i name="pawpsdc">  12680.77512887 </i>
    <i name="pawaedc"> -12817.41364524 </i>
    <i name="eentropy">     -0.05978095 </i>
    <i name="bandstr">   1173.88479184 </i>
    <i name="atom">  14851.27451460 </i>
    <i name="e_fr_energy">   2116.23262824 </i>
    <i name="e_wo_entrp">   2116.29240918 </i>
    <i name="e_0_energy">   2116.25255522 </i>
   </energy>
  </scstep>
  <scstep>
   <time name="diag">    0.06    0.10</time>
   <time name="diis">    0.10    0.18</time>
   <time name="orth">    0.04    0.05</time>
   <time name="total">    0.21    0.34</time>
   <energy>
    <i name="e_fr_energy">    651.74695620 </i>
    <i name="e_wo_entrp">    651.69973204 </i>
    <i name="e_0_energy">    651.73121482 </i>
   </energy>
  </scstep>
  <scstep>
   <time name="diag">    0.08    0.11</time>
   <time name="diis">    0.18    0.20</time>
   <time name="orth">    0.01    0.02</time>
   <time name="total">    0.27    0.33</time>
   <energy>
    <i name="e_fr_energy">    221.82030976 </i>
    <i name="e_wo_entrp">    221.98416433 </i>
    <i name="e_0_energy">    221.87492795 </i>
   </energy>
  </scstep>
  <scstep>
   <time name="diag">    0.16    0.31</time>
   <time name="diis">    0.14    0.17</time>
   <time name="orth">    0.01    0.02</time>
   <time name="total">    0.31    0.50</time>
   <energy>
    <i name="e_fr_energy">     38.25545458 </i>
    <i name="e_wo_entrp">     38.25075936 </i>
    <i name="e_0_energy">     38.25388951 </i>
   </energy>
  </scstep>
  <scstep>
   <time name="diag">    0.08    0.12</time>
   <time name="diis">    0.11    0.22</time>
   <time name="orth">    0.08    0.16</time>
   <time name="total">    0.27    0.50</time>
   <energy>
    <i name="e_fr_energy">    -65.37869930 </i>
    <i name="e_wo_entrp">    -65.30176840 </i>
    <i name="e_0_energy">    -65.35305567 </i>
   </energy>
  </scstep>
  <scstep>
   <time name="diag">    0.04    0.08</time>
   <time name="diis">    0.11    0.17</time>
   <time name="orth">    0.01    0.02</time>
   <time name="total">    0.17    0.27</time>
   <energy>
    <i name="e_fr_energy">   -112.65902902 </i>
    <i name="e_wo_entrp">   -112.64137777 </i>
    <i name="e_0_energy">   -112.65314527 </i>
   </energy>
  </scstep>
  <scstep>
   <time name="diag">    0.04    0.08</time>
   <time name="diis">    0.12    0.20</time>
   <time name="orth">    0.06    0.12</time>
   <time name="total">    0.22    0.40</time>
   <energy>
    <i name="e_fr_energy">   -136.06278233 </i>
    <i name="e_wo_entrp">   -136.05235462 </i>
    <i name="e_0_energy">   -136.05930643 </i>
   </energy>
  </scstep>
  <scstep>
   <time name="diag">    0.07    0.07</time>
   <time name="diis">    0.16    0.18</time>
   <time name="orth">    0.02    0.03</time>
   <time name="total">    0.25    0.28</time>
   <energy>
    <i name="e_fr_energy">   -145.74171217 </i>
    <i name="e_wo_entrp">   -145.73702488 </i>
    <i name="e_0_energy">   -145.74014974 </i>
   </energy>
  </scstep>
  <scstep>
   <time name="diag">    0.09    0.18</time>
   <time name="diis">    0.35    0.53</time>
   <time name="orth">    0.09    0.19</time>
   <time name="total">    0.54    0.90</time>
   <energy>
    <i name="e_fr_energy">   -155.38851171 </i>
    <i name="e_wo_entrp">   -155.40818152 </i>
    <i name="e_0_energy">   -155.39506832 </i>
   </energy>
  </scstep>
  <scstep>
   <time name="diag">    0.16    0.29</time>
   <time name="diis">    0.34    0.48</time>
   <time name="orth">    0.02    0.02</time>
   <time name="total">    0.52    0.79</time>
   <energy>
    <i name="e_fr_energy">   -155.63371089 </i>
    <i name="e_wo_entrp">   -155.65008502 </i>
    <i name="e_0_energy">   -155.63916893 </i>
   </energy>
  </scstep>
  <scstep>
   <time name="diag">    0.10    0.21</time>
   <time name="diis">    0.35    0.45</time>
   <time name="orth">    0.04    0.06</time>
   <time name="total">    0.49    0.72</time>
   <energy>
    <i name="e_fr_energy">   -155.83288509 </i>
    <i name="e_wo_entrp">   -155.84872154 </i>
    <i name="e_0_energy">   -155.83816391 </i>
   </energy>
  </scstep>
  <scstep>
   <time name="diag">    0.20    0.26</time>
   <time name="diis">    0.27    0.39</time>
   <time name="orth">    0.17    0.22</time>
   <time name="total">    0.69    0.91</time>
   <energy>
    <i name="e_fr_energy">   -155.96947552 </i>
    <i name="e_wo_entrp">   -155.99359128 </i>
    <i name="e_0_energy">   -155.97751411 </i>
   </energy>
  </scstep>
  <scstep>
   <time name="diag">    0.13    0.16</time>
   <time name="diis">    0.32    0.38</time>
   <time name="orth">    0.02    0.02</time>
   <time name="total">    0.62    0.73</time>
   <energy>
    <i name="e_fr_energy">   -149.47609568 </i>
    <i name="e_wo_entrp">   -149.46239196 </i>
    <i name="e_0_energy">   -149.47152777 </i>
   </energy>
  </scstep>
  <scstep>
   <time name="diag">    0.12    0.15</time>
   <time name="diis">    0.26    0.38</time>
   <time name="orth">    0.06    0.09</time>
   <time name="total">    0.61    0.89</time>
   <energy>
    <i name="e_fr_energy">   -175.04552444 </i>
    <i name="e_wo_entrp">   -175.01205638 </i>
    <i name="e_0_energy">   -175.03436842 </i>
   </energy>
  </scstep>
  <scstep>
   <time name="diag">    0.13    0.20</time>
   <time name="diis">    0.23    0.45</time>
   <time name="orth">    0.01    0.02</time>
   <time name="total">    0.64    0.97</time>
   <energy>
    <i name="e_fr_energy">   -141.46393130 </i>
    <i name="e_wo_entrp">   -141.40836310 </i>
    <i name="e_0_energy">   -141.44540857 </i>
   </energy>
  </scstep>
  <scstep>
   <time name="diag">    0.11    0.15</time>
   <time name="diis">    0.25    0.35</time>
   <time name="orth">    0.01    0.02</time>
   <time name="total">    0.56    0.80</time>
   <energy>
    <i name="e_fr_energy">   -138.08515807 </i>
    <i name="e_wo_entrp">   -138.07923689 </i>
    <i name="e_0_energy">   -138.08318434 </i>
   </energy>
  </scstep>
  <scstep>
   <time name="diag">    0.13    0.17</time>
   <time name="diis">    0.23    0.37</time>
   <time name="orth">    0.09    0.19</time>
   <time name="total">    0.65    1.07</time>
   <energy>
    <i name="e_fr_energy">   -153.55469499 </i>
    <i name="e_wo_entrp">   -153.46125713 </i>
    <i name="e_0_energy">   -153.52354904 </i>
   </energy>
  </scstep>
  <scstep>
   <time name="diag">    0.12    0.18</time>
   <time name="diis">    0.25    0.40</time>
   <time name="orth">    0.01    0.02</time>
   <time name="total">    0.57    0.93</time>
   <energy>
    <i name="e_fr_energy">   -145.47174851 </i>
    <i name="e_wo_entrp">   -145.38281441 </i>
    <i name="e_0_energy">   -145.44210381 </i>
   </energy>
  </scstep>
  <scstep>
   <time name="diag">    0.20    0.32</time>
   <time name="diis">    0.22    0.37</time>
   <time name="orth">    0.05    0.09</time>
   <time name="total">    0.55    0.92</time>
   <energy>
    <i name="e_fr_energy">   -140.13336765 </i>
    <i name="e_wo_entrp">   -140.13931605 </i>
    <i name="e_0_energy">   -140.13535045 </i>
   </energy>
  </scstep>
  <scstep>
   <time name="diag">    0.12    0.18</time>
   <time name="diis">    0.25    0.42</time>
   <time name="orth">    0.01    0.02</time>
   <time name="total">    0.65    0.95</time>
   <energy>
    <i name="e_fr_energy">   -141.64861217 </i>
    <i name="e_wo_entrp">   -141.56229245 </i>
    <i name="e_0_energy">   -141.61983893 </i>
   </energy>
  </scstep>
  <scstep>
   <time name="diag">    0.10    0.15</time>
   <time name="diis">    0.23    0.37</time>
   <time name="orth">    0.08    0.13</time>
   <time name="total">    0.64    1.04</time>
   <energy>
    <i name="e_fr_energy">   -141.42163179 </i>
    <i name="e_wo_entrp">   -141.37401894 </i>
    <i name="e_0_energy">   -141.40576084 </i>
   </energy>
  </scstep>
  <scstep>
   <time name="diag">    0.14    0.20</time>
   <time name="diis">    0.25    0.36</time>
   <time name="orth">    0.07    0.07</time>
   <time name="total">    0.72    0.97</time>
   <energy>
    <i name="e_fr_energy">   -136.44803929 </i>
    <i name="e_wo_entrp">   -136.47640743 </i>
    <i name="e_0_energy">   -136.45749534 </i>
   </energy>
  </scstep>
  <scstep>
   <time name="diag">    0.14    0.17</time>
   <time name="diis">    0.24    0.39</time>
   <time name="orth">    0.02    0.04</time>
   <time name="total">    0.81    1.20</time>
   <energy>
    <i name="e_fr_energy">   -136.50744181 </i>
    <i name="e_wo_entrp">   -136.47242611 </i>
    <i name="e_0_energy">   -136.49576991 </i>
   </energy>
  </scstep>
  <scstep>
   <time name="diag">    0.18    0.36</time>
   <time name="diis">    0.25    0.38</time>
   <time name="orth">    0.08    0.16</time>
   <time name="total">    0.60    1.09</time>
   <energy>
    <i name="e_fr_energy">   -133.36856355 </i>
    <i name="e_wo_entrp">   -133.32955124 </i>
    <i name="e_0_energy">   -133.35555945 </i>
   </energy>
  </scstep>
  <scstep>
   <time name="diag">    0.03    0.06</time>
   <time name="diis">    0.28    0.40</time>
   <time name="orth">    0.06    0.11</time>
   <time name="total">    0.72    1.02</time>
   <energy>
    <i name="e_fr_energy">   -134.74267913 </i>
    <i name="e_wo_entrp">   -134.70126056 </i>
    <i name="e_0_energy">   -134.72887294 </i>
   </energy>
  </scstep>
  <scstep>
   <time name="diag">    0.12    0.19</time>
   <time name="diis">    0.31    0.33</time>
   <time name="orth">    0.07    0.09</time>
   <time name="total">    0.58    0.77</time>
   <energy>
    <i name="e_fr_energy">   -132.83702672 </i>
    <i name="e_wo_entrp">   -132.85179358 </i>
    <i name="e_0_energy">   -132.84194900 </i>
   </energy>
  </scstep>
  <scstep>
   <time name="diag">    0.08    0.11</time>
   <time name="diis">    0.25    0.37</time>
   <time name="orth">    0.06    0.11</time>
   <time name="total">    0.57    0.87</time>
   <energy>
    <i name="e_fr_energy">   -132.36065141 </i>
    <i name="e_wo_entrp">   -132.33155667 </i>
    <i name="e_0_energy">   -132.35095316 </i>
   </energy>
  </scstep>
  <scstep>
   <time name="diag">    0.08    0.11</time>
   <time name="diis">    0.29    0.40</time>
   <time name="orth">    0.02    0.02</time>
   <time name="total">    0.50    0.64</time>
   <energy>
    <i name="e_fr_energy">   -132.30342940 </i>
    <i name="e_wo_entrp">   -132.28650256 </i>
    <i name="e_0_energy">   -132.29778712 </i>
   </energy>
  </scstep>
  <scstep>
   <time name="diag">    0.07    0.09</time>
   <time name="diis">    0.49    0.54</time>
   <time name="orth">    0.21    0.32</time>
   <time name="total">    1.00    1.19</time>
   <energy>
    <i name="e_fr_energy">   -132.23713056 </i>
    <i name="e_wo_entrp">   -132.20535974 </i>
    <i name="e_0_energy">   -132.22654029 </i>
   </energy>
  </scstep>
  <scstep>
   <time name="diag">    0.09    0.11</time>
   <time name="diis">    0.32    0.48</time>
   <time name="orth">    0.01    0.02</time>
   <time name="total">    0.65    1.00</time>
   <energy>
    <i name="e_fr_energy">   -132.34654129 </i>
    <i name="e_wo_entrp">   -132.32745173 </i>
    <i name="e_0_energy">   -132.34017810 </i>
   </energy>
  </scstep>
  <scstep>
   <time name="diag">    0.20    0.30</time>
   <time name="diis">    0.31    0.44</time>
   <time name="orth">    0.01    0.02</time>
   <time name="total">    0.61    0.92</time>
   <energy>
    <i name="e_fr_energy">   -132.35380712 </i>
    <i name="e_wo_entrp">   -132.33949160 </i>
    <i name="e_0_energy">   -132.34903528 </i>
   </energy>
  </scstep>
  <scstep>
   <time name="diag">    0.05    0.07</time>
   <time name="diis">    0.24    0.33</time>
   <time name="orth">    0.02    0.02</time>
   <time name="total">    0.45    0.62</time>
   <energy>
    <i name="e_fr_energy">   -132.39605851 </i>
    <i name="e_wo_entrp">   -132.38492619 </i>
    <i name="e_0_energy">   -132.39234774 </i>
   </energy>
  </scstep>
  <scstep>
   <time name="diag">    0.08    0.12</time>
   <time name="diis">    0.23    0.37</time>
   <time name="orth">    0.01    0.01</time>
   <time name="total">    0.40    0.60</time>
   <energy>
    <i name="e_fr_energy">   -132.36996008 </i>
    <i name="e_wo_entrp">   -132.35533477 </i>
    <i name="e_0_energy">   -132.36508498 </i>
   </energy>
  </scstep>
  <scstep>
   <time name="diag">    0.04    0.08</time>
   <time name="diis">    0.25    0.40</time>
   <time name="orth">    0.04    0.08</time>
   <time name="total">    0.44    0.72</time>
   <energy>
    <i name="e_fr_energy">   -132.39089262 </i>
    <i name="e_wo_entrp">   -132.38150573 </i>
    <i name="e_0_energy">   -132.38776366 </i>
   </energy>
  </scstep>
  <scstep>
   <time name="diag">    0.06    0.07</time>
   <time name="diis">    0.31    0.39</time>
   <time name="orth">    0.01    0.01</time>
   <time name="total">    0.66    0.98</time>
   <energy>
    <i name="e_fr_energy">   -132.38472808 </i>
    <i name="e_wo_entrp">   -132.37284651 </i>
    <i name="e_0_energy">   -132.38076755 </i>
   </energy>
  </scstep>
  <scstep>
   <time name="diag">    0.07    0.13</time>
   <time name="diis">    0.24    0.31</time>
   <time name="orth">    0.02    0.02</time>
   <time name="total">    0.54    0.80</time>
   <energy>
    <i name="e_fr_energy">   -132.40244211 </i>
    <i name="e_wo_entrp">   -132.39679810 </i>
    <i name="e_0_energy">   -132.40056077 </i>
   </energy>
  </scstep>
  <scstep>
   <time name="diag">    0.07    0.13</time>
   <time name="diis">    0.20    0.32</time>
   <time name="orth">    0.02    0.02</time>
   <time name="total">    0.36    0.62</time>
   <energy>
    <i name="e_fr_energy">   -132.40534395 </i>
    <i name="e_wo_entrp">   -132.39865012 </i>
    <i name="e_0_energy">   -132.40311268 </i>
   </energy>
  </scstep>
  <scstep>
   <time name="diag">    0.06    0.11</time>
   <time name="diis">    0.22    0.36</time>
   <time name="orth">    0.01    0.01</time>
   <time name="total">    0.49    0.82</time>
   <energy>
    <i name="e_fr_energy">   -132.42155838 </i>
    <i name="e_wo_entrp">   -132.42057732 </i>
    <i name="e_0_energy">   -132.42123136 </i>
   </energy>
  </scstep>
  <scstep>
   <time name="diag">    0.09    0.09</time>
   <time name="diis">    0.19    0.29</time>
   <time name="orth">    0.01    0.02</time>
   <time name="total">    0.43    0.58</time>
   <energy>
    <i name="e_fr_energy">   -132.42550282 </i>
    <i name="e_wo_entrp">   -132.42453007 </i>
    <i name="e_0_energy">   -132.42517857 </i>
   </energy>
  </scstep>
  <scstep>
   <time name="diag">    0.09    0.15</time>
   <time name="diis">    0.19    0.32</time>
   <time name="orth">    0.04    0.05</time>
   <time name="total">    0.44    0.70</time>
   <energy>
    <i name="e_fr_energy">   -132.43704809 </i>
    <i name="e_wo_entrp">   -132.43909122 </i>
    <i name="e_0_energy">   -132.43772914 </i>
   </energy>
  </scstep>
  <scstep>
   <time name="diag">    0.09    0.15</time>
   <time name="diis">    0.20    0.34</time>
   <time name="orth">    0.06    0.10</time>
   <time name="total">    0.51    0.73</time>
   <energy>
    <i name="e_fr_energy">   -132.44871237 </i>
    <i name="e_wo_entrp">   -132.45445674 </i>
    <i name="e_0_energy">   -132.45062716 </i>
   </energy>
  </scstep>
  <scstep>
   <time name="diag">    0.04    0.07</time>
   <time name="diis">    0.22    0.34</time>
   <time name="orth">    0.01    0.02</time>
   <time name="total">    0.37    0.62</time>
   <energy>
    <i name="e_fr_energy">   -132.45573597 </i>
    <i name="e_wo_entrp">   -132.46324527 </i>
    <i name="e_0_energy">   -132.45823907 </i>
   </energy>
  </scstep>
  <scstep>
   <time name="diag">    0.05    0.09</time>
   <time name="diis">    0.18    0.24</time>
   <time name="orth">    0.02    0.02</time>
   <time name="total">    0.46    0.61</time>
   <energy>
    <i name="e_fr_energy">   -132.45781598 </i>
    <i name="e_wo_entrp">   -132.46659658 </i>
    <i name="e_0_energy">   -132.46074285 </i>
   </energy>
  </scstep>
  <scstep>
   <time name="diag">    0.10    0.21</time>
   <time name="diis">    0.18    0.25</time>
   <time name="orth">    0.03    0.04</time>
   <time name="total">    0.46    0.66</time>
   <energy>
    <i name="e_fr_energy">   -132.45943091 </i>
    <i name="e_wo_entrp">   -132.46872862 </i>
    <i name="e_0_energy">   -132.46253015 </i>
   </energy>
  </scstep>
  <scstep>
   <time name="diag">    0.26    0.29</time>
   <time name="diis">    0.17    0.22</time>
   <time name="orth">    0.02    0.03</time>
   <time name="total">    0.59    0.78</time>
   <energy>
    <i name="e_fr_energy">   -132.46022752 </i>
    <i name="e_wo_entrp">   -132.47002866 </i>
    <i name="e_0_energy">   -132.46349457 </i>
   </energy>
  </scstep>
  <scstep>
   <time name="diag">    0.04    0.08</time>
   <time name="diis">    0.13    0.26</time>
   <time name="orth">    0.02    0.04</time>
   <time name="total">    0.27    0.52</time>
   <energy>
    <i name="e_fr_energy">   -132.46071575 </i>
    <i name="e_wo_entrp">   -132.47092059 </i>
    <i name="e_0_energy">   -132.46411736 </i>
   </energy>
  </scstep>
  <scstep>
   <time name="diag">    0.10    0.10</time>
   <time name="diis">    0.27    0.27</time>
   <time name="orth">    0.02    0.02</time>
   <time name="total">    0.49    0.51</time>
   <energy>
    <i name="e_fr_energy">   -132.46058485 </i>
    <i name="e_wo_entrp">   -132.47020957 </i>
    <i name="e_0_energy">   -132.46379309 </i>
   </energy>
  </scstep>
  <scstep>
   <time name="diag">    0.10    0.10</time>
   <time name="diis">    0.17    0.21</time>
   <time name="orth">    0.12    0.12</time>
   <time name="total">    0.48    0.52</time>
   <energy>
    <i name="alphaZ">    634.09262729 </i>
    <i name="ewald"> -10606.00297960 </i>
    <i name="hartreedc">  -4475.14865607 </i>
    <i name="XCdc">    604.73604791 </i>
    <i name="pawpsdc">  14878.70692566 </i>
    <i name="pawaedc"> -15019.43087825 </i>
    <i name="eentropy">      0.00976888 </i>
    <i name="bandstr">  -1000.69800174 </i>
    <i name="atom">  14851.27451460 </i>
    <i name="e_fr_energy">   -132.46063131 </i>
    <i name="e_wo_entrp">   -132.47040019 </i>
    <i name="e_0_energy">   -132.46388760 </i>
   </energy>
  </scstep>
  <structure>
   <crystal>
    <varray name="basis" >
     <v>       5.73591900       0.00000000      -0.79026700 </v>
     <v>       0.00000000       4.78544200       0.00000000 </v>
     <v>       0.00000000       0.00000000      10.88396600 </v>
    </varray>
    <i name="volume">    298.75297805 </i>
    <varray name="rec_basis" >
     <v>       0.17433998       0.00000000       0.00000000 </v>
     <v>       0.00000000       0.20896711       0.00000000 </v>
     <v>       0.01265854       0.00000000       0.09187827 </v>
    </varray>
   </crystal>
   <varray name="positions" >
    <v>       0.24699400       0.24850600       0.74623300 </v>
    <v>       0.24699400       0.75149400       0.24623300 </v>
    <v>       0.51485700       0.24497600       0.49879200 </v>
    <v>       0.51485700       0.75502400       0.99879200 </v>
    <v>       0.76069800       0.23127500       0.26486200 </v>
    <v>       0.75373900       0.76872500       0.76486200 </v>
    <v>       0.99659300       0.24137200       0.98992200 </v>
    <v>       0.99045900       0.75862800       0.49652900 </v>
    <v>       0.77857200       0.05847800       0.41725200 </v>
    <v>       0.77857200       0.94152200       0.91725200 </v>
    <v>       0.01370000       0.05755600       0.19124500 </v>
    <v>       0.01370000       0.94244400       0.68278600 </v>
    <v>       0.22224900       0.44944100       0.57080400 </v>
    <v>       0.22224900       0.55055900       0.07080400 </v>
    <v>       0.27923300       0.05174700       0.92203700 </v>
    <v>       0.27923300       0.95794700       0.42675800 </v>
    <v>       0.48187500       0.45353000       0.31584000 </v>
    <v>       0.48187500       0.54647000       0.81584000 </v>
    <v>       0.52253600       0.03560000       0.67416600 </v>
    <v>       0.52253600       0.96440000       0.17416600 </v>
    <v>       0.72562600       0.44302000       0.09109400 </v>
    <v>       0.72235300       0.56009900       0.59109400 </v>
    <v>       0.97343300       0.45764700       0.81960400 </v>
    <v>       0.97343300       0.55107800       0.31960400 </v>
   </varray>
  </structure>
  <varray name="forces" >
   <v>       0.21016398      -0.03573224      -0.37310673 </v>
   <v>       0.08169700       0.11829292       0.08305794 </v>
   <v>       0.90151921      -0.67765908      -0.73696949 </v>
   <v>       0.94959174       0.71754789      -0.57155131 </v>
   <v>      -0.47030320       0.35997231       0.09757937 </v>
   <v>       0.06310556      -0.24483435      -0.16306115 </v>
   <v>      -1.24753375      -1.21682313      -0.15999041 </v>
   <v>      -0.91419261       1.36579634      -0.55401395 </v>
   <v>      -0.37125710      -0.16308409       1.35671125 </v>
   <v>      -0.25545091       0.23430197       1.07392668 </v>
   <v>       0.49790998      -0.47873991      -0.32939410 </v>
   <v>       0.28195076       0.40111751       0.02320045 </v>
   <v>       0.05082289      -0.15819520       0.29078675 </v>
   <v>       0.13015003       0.16794079       0.04303511 </v>
   <v>      -0.21078825       0.31014534      -0.13759721 </v>
   <v>      -0.20641394      -0.44584795      -0.25325649 </v>
   <v>      -0.11817778      -0.13544889       0.48815068 </v>
   <v>      -0.23311738       0.11128632       0.57492372 </v>
   <v>      -0.28653433       0.69314985       0.17330835 </v>
   <v>      -0.22635517      -0.69385702       0.09150584 </v>
   <v>       0.20506106       0.04267558      -0.90947617 </v>
   <v>       0.22347149      -0.13710364      -0.93602172 </v>
   <v>       0.42016781      -0.41457030       0.38032105 </v>
   <v>       0.52451292       0.27966898       0.44793153 </v>
  </varray>
  <varray name="stress" >
   <v>    -242.83334460      -0.64266410      20.49500566 </v>
   <v>      -0.64266531    -258.44708123      -0.65276953 </v>
   <v>      20.49500602      -0.65276957    -283.75577110 </v>
  </varray>
  <energy>
   <i name="e_fr_energy">   -132.46063131 </i>
   <i name="e_wo_entrp">   -132.46388760 </i>
   <i name="e_0_energy">      0.00976888 </i>
  </energy>
  <time name="totalsc">   26.79   39.27</time>
  <eigenvalues>
   <array>
    <dimension dim="1">band</dimension>
    <dimension dim="2">kpoint</dimension>
    <dimension dim="3">spin</dimension>
    <field>eigene</field>
    <field>occ</field>
    <set>
     <set comment="spin 1">
      <set comment="kpoint 1">
       <r>  -22.7154    1.0000 </r>
       <r>  -22.6184    1.0000 </r>
       <r>  -22.4126    1.0000 </r>
       <r>  -22.3507    1.0000 </r>
       <r>  -22.3015    1.0000 </r>
       <r>  -22.2925    1.0000 </r>
       <r>  -22.2336    1.0000 </r>
       <r>  -22.1916    1.0000 </r>
       <r>  -22.1301    1.0000 </r>
       <r>  -22.0653    1.0000 </r>
       <r>  -21.9610    1.0000 </r>
       <r>  -21.9277    1.0000 </r>
       <r>  -21.8370    1.0000 </r>
       <r>  -21.7025    1.0000 </r>
       <r>  -16.7340    1.0000 </r>
       <r>  -16.7019    1.0000 </r>
       <r>   -6.1347    1.0000 </r>
       <r>   -5.7948    1.0000 </r>
       <r>   -5.3768    1.0000 </r>
       <r>   -5.2547    1.0000 </r>
       <r>   -5.1758    1.0000 </r>
       <r>   -5.0516    1.0000 </r>
       <r>   -5.0143    1.0000 </r>
       <r>   -4.9332    1.0000 </r>
       <r>   -4.8499    1.0000 </r>
       <r>   -4.7736    1.0000 </r>
       <r>   -4.7058    1.0000 </r>
       <r>   -4.5988    1.0000 </r>
       <r>   -4.5812    1.0000 </r>
       <r>   -4.5680    1.0000 </r>
       <r>   -4.4695    1.0000 </r>
       <r>   -4.4107    1.0000 </r>
       <r>   -4.3449    1.0000 </r>
       <r>   -4.3013    1.0000 </r>
       <r>   -4.2938    1.0000 </r>
       <r>   -4.2250    1.0000 </r>
       <r>   -4.2059    1.0000 </r>
       <r>   -4.1561    1.0000 </r>
       <r>   -4.0258    1.0000 </r>
       <r>   -4.0039    1.0000 </r>
       <r>   -3.9664    1.0000 </r>
       <r>   -3.9454    1.0000 </r>
       <r>   -3.9255    1.0000 </r>
       <r>   -3.8718    1.0000 </r>
       <r>   -3.6648    1.0000 </r>
       <r>   -3.5657    1.0000 </r>
       <r>   -3.4330    1.0000 </r>
       <r>   -3.3779    1.0000 </r>
       <r>   -3.3629    1.0000 </r>
       <r>   -3.2381    1.0000 </r>
       <r>   -3.0497    1.0000 </r>
       <r>   -3.0156    1.0000 </r>
       <r>   -2.9698    1.0000 </r>
       <r>   -2.9184    1.0000 </r>
       <r>   -2.7891    1.0000 </r>
       <r>   -2.7521    1.0000 </r>
       <r>   -2.7021    1.0000 </r>
       <r>   -2.6572    1.0000 </r>
       <r>   -2.4845    1.0000 </r>
       <r>   -2.4269    1.0000 </r>
       <r>   -2.3337    1.0000 </r>
       <r>   -2.2615    1.0000 </r>
       <r>   -1.5831    1.0000 </r>
       <r>   -1.5443    1.0000 </r>
       <r>    0.9180    1.0000 </r>
       <r>    0.9271    1.0000 </r>
       <r>    0.9978    1.0000 </r>
       <r>    1.0087    1.0000 </r>
       <r>    1.0390    1.0001 </r>
       <r>    1.0503    1.0001 </r>
       <r>    1.0653    1.0002 </r>
       <r>    1.1049    1.0006 </r>
       <r>    1.1709    1.0025 </r>
       <r>    1.1937    1.0038 </r>
       <r>    1.2285    1.0071 </r>
       <r>    1.2385    1.0084 </r>
       <r>    1.3016    1.0199 </r>
       <r>    1.3140    1.0227 </r>
       <r>    1.3658    1.0335 </r>
       <r>    1.4117    1.0335 </r>
       <r>    1.4334    1.0262 </r>
       <r>    1.4434    1.0205 </r>
       <r>    1.4838    0.9787 </r>
       <r>    1.5171    0.9165 </r>
       <r>    1.5466    0.8381 </r>
       <r>    1.5683    0.7673 </r>
       <r>    1.5896    0.6888 </r>
       <r>    1.6599    0.3979 </r>
       <r>    1.6729    0.3451 </r>
       <r>    1.8141   -0.0102 </r>
       <r>    1.8964   -0.0346 </r>
       <r>    1.9176   -0.0314 </r>
       <r>    1.9561   -0.0229 </r>
       <r>    2.0325   -0.0084 </r>
       <r>    2.0984   -0.0025 </r>
       <r>    2.1217   -0.0016 </r>
       <r>    2.3274   -0.0000 </r>
       <r>    2.4454   -0.0000 </r>
       <r>    2.8022   -0.0000 </r>
       <r>    2.8778   -0.0000 </r>
       <r>    2.9398   -0.0000 </r>
       <r>    2.9734   -0.0000 </r>
       <r>    3.0644   -0.0000 </r>
       <r>    3.2226   -0.0000 </r>
      </set>
     </set>
    </set>
   </array>
  </eigenvalues>
  <separator name="orbital magnetization" >
   <v name="MAGDIPOLOUT">      0.00000000      0.00000000      0.00000000</v>
  </separator>
  <dos>
   <i name="efermi">      1.63553400 </i>
   <total>
    <array>
     <dimension dim="1">gridpoints</dimension>
     <dimension dim="2">spin</dimension>
     <field>energy</field>
     <field>total</field>
     <field>integrated</field>
     <set>
      <set comment="spin 1">
       <r>   -24.7154     0.0000     0.0000 </r>
       <r>   -24.6156     0.0000     0.0000 </r>
       <r>   -24.5158     0.0000     0.0000 </r>
       <r>   -24.4160     0.0000     0.0000 </r>
       <r>   -24.3162    -0.0000    -0.0000 </r>
       <r>   -24.2164    -0.0000    -0.0000 </r>
       <r>   -24.1167    -0.0000    -0.0000 </r>
       <r>   -24.0169    -0.0000    -0.0000 </r>
       <r>   -23.9171    -0.0000    -0.0000 </r>
       <r>   -23.8173    -0.0000    -0.0000 </r>
       <r>   -23.7175    -0.0000    -0.0000 </r>
       <r>   -23.6177    -0.0000    -0.0000 </r>
       <r>   -23.5179    -0.0000    -0.0000 </r>
       <r>   -23.4181    -0.0001    -0.0000 </r>
       <r>   -23.3183    -0.0017    -0.0002 </r>
       <r>   -23.2185    -0.0217    -0.0023 </r>
       <r>   -23.1187    -0.1514    -0.0175 </r>
       <r>   -23.0189    -0.5241    -0.0698 </r>
       <r>   -22.9191    -0.4185    -0.1115 </r>
       <r>   -22.8193     2.7743     0.1653 </r>
       <r>   -22.7195     9.5065     1.1140 </r>
       <r>   -22.6198    13.4574     2.4570 </r>
       <r>   -22.5200    12.7944     3.7338 </r>
       <r>   -22.4202    18.5386     5.5838 </r>
       <r>   -22.3204    33.5418     8.9311 </r>
       <r>   -22.2206    42.7934    13.2016 </r>
       <r>   -22.1208    38.6766    17.0612 </r>
       <r>   -22.0210    30.9297    20.1478 </r>
       <r>   -21.9212    26.9799    22.8402 </r>
       <r>   -21.8214    23.2273    25.1582 </r>
       <r>   -21.7216    16.8595    26.8406 </r>
       <r>   -21.6218     9.4894    27.7876 </r>
       <r>   -21.5220     3.0877    28.0957 </r>
       <r>   -21.4222    -0.1677    28.0790 </r>
       <r>   -21.3224    -0.5546    28.0237 </r>
       <r>   -21.2226    -0.1998    28.0037 </r>
       <r>   -21.1229    -0.0340    28.0003 </r>
       <r>   -21.0231    -0.0032    28.0000 </r>
       <r>   -20.9233    -0.0002    28.0000 </r>
       <r>   -20.8235    -0.0000    28.0000 </r>
       <r>   -20.7237    -0.0000    28.0000 </r>
       <r>   -20.6239    -0.0000    28.0000 </r>
       <r>   -20.5241    -0.0000    28.0000 </r>
       <r>   -20.4243    -0.0000    28.0000 </r>
       <r>   -20.3245     0.0000    28.0000 </r>
       <r>   -20.2247     0.0000    28.0000 </r>
       <r>   -20.1249     0.0000    28.0000 </r>
       <r>   -20.0251     0.0000    28.0000 </r>
       <r>   -19.9253     0.0000    28.0000 </r>
       <r>   -19.8255     0.0000    28.0000 </r>
       <r>   -19.7257     0.0000    28.0000 </r>
       <r>   -19.6260     0.0000    28.0000 </r>
       <r>   -19.5262     0.0000    28.0000 </r>
       <r>   -19.4264     0.0000    28.0000 </r>
       <r>   -19.3266     0.0000    28.0000 </r>
       <r>   -19.2268     0.0000    28.0000 </r>
       <r>   -19.1270     0.0000    28.0000 </r>
       <r>   -19.0272     0.0000    28.0000 </r>
       <r>   -18.9274     0.0000    28.0000 </r>
       <r>   -18.8276     0.0000    28.0000 </r>
       <r>   -18.7278     0.0000    28.0000 </r>
       <r>   -18.6280     0.0000    28.0000 </r>
       <r>   -18.5282     0.0000    28.0000 </r>
       <r>   -18.4284    -0.0000    28.0000 </r>
       <r>   -18.3286    -0.0000    28.0000 </r>
       <r>   -18.2288    -0.0000    28.0000 </r>
       <r>   -18.1291    -0.0000    28.0000 </r>
       <r>   -18.0293    -0.0000    28.0000 </r>
       <r>   -17.9295    -0.0000    28.0000 </r>
       <r>   -17.8297    -0.0000    28.0000 </r>
       <r>   -17.7299    -0.0000    28.0000 </r>
       <r>   -17.6301    -0.0000    28.0000 </r>
       <r>   -17.5303    -0.0000    28.0000 </r>
       <r>   -17.4305    -0.0001    28.0000 </r>
       <r>   -17.3307    -0.0027    27.9997 </r>
       <r>   -17.2309    -0.0338    27.9963 </r>
       <r>   -17.1311    -0.2282    27.9736 </r>
       <r>   -17.0313    -0.7199    27.9017 </r>
       <r>   -16.9315    -0.1829    27.8835 </r>
       <r>   -16.8317     5.0802    28.3904 </r>
       <r>   -16.7319    13.7835    29.7660 </r>
       <r>   -16.6322    15.3957    31.3023 </r>
       <r>   -16.5324     7.5358    32.0544 </r>
       <r>   -16.4326     0.6750    32.1217 </r>
       <r>   -16.3328    -0.8073    32.0412 </r>
       <r>   -16.2330    -0.3446    32.0068 </r>
       <r>   -16.1332    -0.0617    32.0006 </r>
       <r>   -16.0334    -0.0059    32.0000 </r>
       <r>   -15.9336    -0.0003    32.0000 </r>
       <r>   -15.8338    -0.0000    32.0000 </r>
       <r>   -15.7340    -0.0000    32.0000 </r>
       <r>   -15.6342    -0.0000    32.0000 </r>
       <r>   -15.5344    -0.0000    32.0000 </r>
       <r>   -15.4346    -0.0000    32.0000 </r>
       <r>   -15.3348     0.0000    32.0000 </r>
       <r>   -15.2350     0.0000    32.0000 </r>
       <r>   -15.1353     0.0000    32.0000 </r>
       <r>   -15.0355     0.0000    32.0000 </r>
       <r>   -14.9357     0.0000    32.0000 </r>
       <r>   -14.8359     0.0000    32.0000 </r>
       <r>   -14.7361     0.0000    32.0000 </r>
       <r>   -14.6363     0.0000    32.0000 </r>
       <r>   -14.5365     0.0000    32.0000 </r>
       <r>   -14.4367     0.0000    32.0000 </r>
       <r>   -14.3369     0.0000    32.0000 </r>
       <r>   -14.2371     0.0000    32.0000 </r>
       <r>   -14.1373     0.0000    32.0000 </r>
       <r>   -14.0375     0.0000    32.0000 </r>
       <r>   -13.9377     0.0000    32.0000 </r>
       <r>   -13.8379     0.0000    32.0000 </r>
       <r>   -13.7381     0.0000    32.0000 </r>
       <r>   -13.6384     0.0000    32.0000 </r>
       <r>   -13.5386     0.0000    32.0000 </r>
       <r>   -13.4388     0.0000    32.0000 </r>
       <r>   -13.3390     0.0000    32.0000 </r>
       <r>   -13.2392     0.0000    32.0000 </r>
       <r>   -13.1394     0.0000    32.0000 </r>
       <r>   -13.0396     0.0000    32.0000 </r>
       <r>   -12.9398     0.0000    32.0000 </r>
       <r>   -12.8400     0.0000    32.0000 </r>
       <r>   -12.7402     0.0000    32.0000 </r>
       <r>   -12.6404     0.0000    32.0000 </r>
       <r>   -12.5406     0.0000    32.0000 </r>
       <r>   -12.4408     0.0000    32.0000 </r>
       <r>   -12.3410     0.0000    32.0000 </r>
       <r>   -12.2412     0.0000    32.0000 </r>
       <r>   -12.1415     0.0000    32.0000 </r>
       <r>   -12.0417     0.0000    32.0000 </r>
       <r>   -11.9419     0.0000    32.0000 </r>
       <r>   -11.8421     0.0000    32.0000 </r>
       <r>   -11.7423     0.0000    32.0000 </r>
       <r>   -11.6425     0.0000    32.0000 </r>
       <r>   -11.5427     0.0000    32.0000 </r>
       <r>   -11.4429     0.0000    32.0000 </r>
       <r>   -11.3431     0.0000    32.0000 </r>
       <r>   -11.2433     0.0000    32.0000 </r>
       <r>   -11.1435     0.0000    32.0000 </r>
       <r>   -11.0437     0.0000    32.0000 </r>
       <r>   -10.9439     0.0000    32.0000 </r>
       <r>   -10.8441     0.0000    32.0000 </r>
       <r>   -10.7443     0.0000    32.0000 </r>
       <r>   -10.6446     0.0000    32.0000 </r>
       <r>   -10.5448     0.0000    32.0000 </r>
       <r>   -10.4450     0.0000    32.0000 </r>
       <r>   -10.3452     0.0000    32.0000 </r>
       <r>   -10.2454     0.0000    32.0000 </r>
       <r>   -10.1456     0.0000    32.0000 </r>
       <r>   -10.0458     0.0000    32.0000 </r>
       <r>    -9.9460     0.0000    32.0000 </r>
       <r>    -9.8462     0.0000    32.0000 </r>
       <r>    -9.7464     0.0000    32.0000 </r>
       <r>    -9.6466     0.0000    32.0000 </r>
       <r>    -9.5468     0.0000    32.0000 </r>
       <r>    -9.4470     0.0000    32.0000 </r>
       <r>    -9.3472     0.0000    32.0000 </r>
       <r>    -9.2474     0.0000    32.0000 </r>
       <r>    -9.1476     0.0000    32.0000 </r>
       <r>    -9.0479     0.0000    32.0000 </r>
       <r>    -8.9481     0.0000    32.0000 </r>
       <r>    -8.8483     0.0000    32.0000 </r>
       <r>    -8.7485     0.0000    32.0000 </r>
       <r>    -8.6487     0.0000    32.0000 </r>
       <r>    -8.5489     0.0000    32.0000 </r>
       <r>    -8.4491     0.0000    32.0000 </r>
       <r>    -8.3493     0.0000    32.0000 </r>
       <r>    -8.2495     0.0000    32.0000 </r>
       <r>    -8.1497     0.0000    32.0000 </r>
       <r>    -8.0499     0.0000    32.0000 </r>
       <r>    -7.9501     0.0000    32.0000 </r>
       <r>    -7.8503     0.0000    32.0000 </r>
       <r>    -7.7505    -0.0000    32.0000 </r>
       <r>    -7.6507    -0.0000    32.0000 </r>
       <r>    -7.5510    -0.0000    32.0000 </r>
       <r>    -7.4512    -0.0000    32.0000 </r>
       <r>    -7.3514    -0.0000    32.0000 </r>
       <r>    -7.2516    -0.0000    32.0000 </r>
       <r>    -7.1518    -0.0000    32.0000 </r>
       <r>    -7.0520    -0.0000    32.0000 </r>
       <r>    -6.9522    -0.0000    32.0000 </r>
       <r>    -6.8524    -0.0000    32.0000 </r>
       <r>    -6.7526    -0.0011    31.9999 </r>
       <r>    -6.6528    -0.0142    31.9985 </r>
       <r>    -6.5530    -0.1026    31.9882 </r>
       <r>    -6.4532    -0.3517    31.9531 </r>
       <r>    -6.3534    -0.1834    31.9348 </r>
       <r>    -6.2536     2.2508    32.1594 </r>
       <r>    -6.1538     6.5184    32.8099 </r>
       <r>    -6.0541     7.4726    33.5557 </r>
       <r>    -5.9543     4.9003    34.0447 </r>
       <r>    -5.8545     5.3530    34.5789 </r>
       <r>    -5.7547     7.5174    35.3291 </r>
       <r>    -5.6549     5.1115    35.8391 </r>
       <r>    -5.5551     1.3206    35.9709 </r>
       <r>    -5.4553     3.1690    36.2872 </r>
       <r>    -5.3555    10.3151    37.3166 </r>
       <r>    -5.2557    17.1507    39.0281 </r>
       <r>    -5.1559    21.0592    41.1296 </r>
       <r>    -5.0561    24.0725    43.5319 </r>
       <r>    -4.9563    26.4480    46.1713 </r>
       <r>    -4.8565    26.4181    48.8076 </r>
       <r>    -4.7567    26.3629    51.4384 </r>
       <r>    -4.6569    29.7815    54.4104 </r>
       <r>    -4.5572    34.3615    57.8395 </r>
       <r>    -4.4574    36.2692    61.4589 </r>
       <r>    -4.3576    39.3951    65.3903 </r>
       <r>    -4.2578    43.4913    69.7304 </r>
       <r>    -4.1580    41.2139    73.8433 </r>
       <r>    -4.0582    39.2897    77.7642 </r>
       <r>    -3.9584    43.8875    82.1438 </r>
       <r>    -3.8586    39.0704    86.0428 </r>
       <r>    -3.7588    21.9287    88.2311 </r>
       <r>    -3.6590    12.2560    89.4542 </r>
       <r>    -3.5592    15.0912    90.9602 </r>
       <r>    -3.4594    22.3373    93.1893 </r>
       <r>    -3.3596    27.2586    95.9096 </r>
       <r>    -3.2598    23.4450    98.2492 </r>
       <r>    -3.1600    16.7700    99.9228 </r>
       <r>    -3.0603    19.9678   101.9154 </r>
       <r>    -2.9605    28.5163   104.7612 </r>
       <r>    -2.8607    31.1688   107.8716 </r>
       <r>    -2.7609    31.1163   110.9768 </r>
       <r>    -2.6611    29.2511   113.8959 </r>
       <r>    -2.5613    22.8678   116.1779 </r>
       <r>    -2.4615    20.3478   118.2085 </r>
       <r>    -2.3617    23.1694   120.5206 </r>
       <r>    -2.2619    21.3428   122.6505 </r>
       <r>    -2.1621    12.1206   123.8601 </r>
       <r>    -2.0623     2.8958   124.1490 </r>
       <r>    -1.9625    -0.9610   124.0531 </r>
       <r>    -1.8627    -1.4273   123.9107 </r>
       <r>    -1.7629     0.0502   123.9157 </r>
       <r>    -1.6631     6.2990   124.5443 </r>
       <r>    -1.5634    14.6439   126.0057 </r>
       <r>    -1.4636    14.6070   127.4634 </r>
       <r>    -1.3638     6.2658   128.0886 </r>
       <r>    -1.2640     0.2137   128.1100 </r>
       <r>    -1.1642    -0.7673   128.0334 </r>
       <r>    -1.0644    -0.2836   128.0051 </r>
       <r>    -0.9646    -0.0467   128.0004 </r>
       <r>    -0.8648    -0.0042   128.0000 </r>
       <r>    -0.7650    -0.0002   128.0000 </r>
       <r>    -0.6652    -0.0000   128.0000 </r>
       <r>    -0.5654    -0.0000   128.0000 </r>
       <r>    -0.4656    -0.0000   128.0000 </r>
       <r>    -0.3658    -0.0000   128.0000 </r>
       <r>    -0.2660    -0.0000   128.0000 </r>
       <r>    -0.1662    -0.0000   128.0000 </r>
       <r>    -0.0665    -0.0000   128.0000 </r>
       <r>     0.0333    -0.0000   128.0000 </r>
       <r>     0.1331    -0.0000   128.0000 </r>
       <r>     0.2329    -0.0003   128.0000 </r>
       <r>     0.3327    -0.0053   127.9994 </r>
       <r>     0.4325    -0.0645   127.9930 </r>
       <r>     0.5323    -0.4427   127.9488 </r>
       <r>     0.6321    -1.5864   127.7905 </r>
       <r>     0.7319    -1.8287   127.6080 </r>
       <r>     0.8317     6.4216   128.2489 </r>
       <r>     0.9315    29.4156   131.1843 </r>
       <r>     1.0313    55.3751   136.7104 </r>
       <r>     1.1311    65.4024   143.2371 </r>
       <r>     1.2309    61.8087   149.4052 </r>
       <r>     1.3307    59.3706   155.3300 </r>
       <r>     1.4304    63.1342   161.6304 </r>
       <r>     1.5302    65.6029   168.1771 </r>
       <r>     1.6300    55.8124   173.7468 </r>
       <r>     1.7298    37.1634   177.4555 </r>
       <r>     1.8296    27.4699   180.1968 </r>
       <r>     1.9294    32.1379   183.4040 </r>
       <r>     2.0292    36.6882   187.0652 </r>
       <r>     2.1290    30.8282   190.1416 </r>
       <r>     2.2288    19.4437   192.0820 </r>
       <r>     2.3286    13.3182   193.4111 </r>
       <r>     2.4284    12.7891   194.6873 </r>
       <r>     2.5282     9.1123   195.5967 </r>
       <r>     2.6280     3.1326   195.9093 </r>
       <r>     2.7278     4.6122   196.3696 </r>
       <r>     2.8276    16.2857   197.9948 </r>
       <r>     2.9273    28.3233   200.8212 </r>
       <r>     3.0271    29.5198   203.7671 </r>
       <r>     3.1269    21.3431   205.8970 </r>
       <r>     3.2267    13.0158   207.1959 </r>
       <r>     3.3265     6.9514   207.8896 </r>
       <r>     3.4263     2.0301   208.0922 </r>
       <r>     3.5261    -0.3234   208.0599 </r>
       <r>     3.6259    -0.4428   208.0157 </r>
       <r>     3.7257    -0.1357   208.0022 </r>
       <r>     3.8255    -0.0202   208.0002 </r>
       <r>     3.9253    -0.0017   208.0000 </r>
       <r>     4.0251    -0.0001   208.0000 </r>
       <r>     4.1249    -0.0000   208.0000 </r>
       <r>     4.2247    -0.0000   208.0000 </r>
       <r>     4.3245    -0.0000   208.0000 </r>
       <r>     4.4242    -0.0000   208.0000 </r>
       <r>     4.5240    -0.0000   208.0000 </r>
       <r>     4.6238     0.0000   208.0000 </r>
       <r>     4.7236     0.0000   208.0000 </r>
       <r>     4.8234     0.0000   208.0000 </r>
       <r>     4.9232     0.0000   208.0000 </r>
       <r>     5.0230     0.0000   208.0000 </r>
       <r>     5.1228     0.0000   208.0000 </r>
       <r>     5.2226     0.0000   208.0000 </r>
      </set>
     </set>
    </array>
   </total>
  </dos>
 </calculation>
 <structure name="finalpos" >
  <crystal>
   <varray name="basis" >
    <v>       5.73591900       0.00000000      -0.79026700 </v>
    <v>       0.00000000       4.78544200       0.00000000 </v>
    <v>       0.00000000       0.00000000      10.88396600 </v>
   </varray>
   <i name="volume">    298.75297805 </i>
   <varray name="rec_basis" >
    <v>       0.17433998       0.00000000       0.00000000 </v>
    <v>       0.00000000       0.20896711       0.00000000 </v>
    <v>       0.01265854       0.00000000       0.09187827 </v>
   </varray>
  </crystal>
  <varray name="positions" >
   <v>       0.24699400       0.24850600       0.74623300 </v>
   <v>       0.24699400       0.75149400       0.24623300 </v>
   <v>       0.51485700       0.24497600       0.49879200 </v>
   <v>       0.51485700       0.75502400       0.99879200 </v>
   <v>       0.76069800       0.23127500       0.26486200 </v>
   <v>       0.75373900       0.76872500       0.76486200 </v>
   <v>       0.99659300       0.24137200       0.98992200 </v>
   <v>       0.99045900       0.75862800       0.49652900 </v>
   <v>       0.77857200       0.05847800       0.41725200 </v>
   <v>       0.77857200       0.94152200       0.91725200 </v>
   <v>       0.01370000       0.05755600       0.19124500 </v>
   <v>       0.01370000       0.94244400       0.68278600 </v>
   <v>       0.22224900       0.44944100       0.57080400 </v>
   <v>       0.22224900       0.55055900       0.07080400 </v>
   <v>       0.27923300       0.05174700       0.92203700 </v>
   <v>       0.27923300       0.95794700       0.42675800 </v>
   <v>       0.48187500       0.45353000       0.31584000 </v>
   <v>       0.48187500       0.54647000       0.81584000 </v>
   <v>       0.52253600       0.03560000       0.67416600 </v>
   <v>       0.52253600       0.96440000       0.17416600 </v>
   <v>       0.72562600       0.44302000       0.09109400 </v>
   <v>       0.72235300       0.56009900       0.59109400 </v>
   <v>       0.97343300       0.45764700       0.81960400 </v>
   <v>       0.97343300       0.55107800       0.31960400 </v>
  </varray>
 </structure>
</modeling>
