<?xml version="1.0" encoding="ISO-8859-1"?>
<modeling>
 <generator>
  <i name="program" type="string">vasp </i>
  <i name="version" type="string">5.3.5  </i>
  <i name="subversion" type="string">31Mar14 (build Aug 29 2014 19:41:47) complex                          parallel </i>
  <i name="platform" type="string">LinuxIFC </i>
  <i name="date" type="string">2019 04 11 </i>
  <i name="time" type="string">12:51:10 </i>
 </generator>
 <incar>
  <i type="string" name="SYSTEM"> Fe4OF7_var_7</i>
  <i type="int" name="ISTART">     0</i>
  <i type="string" name="PREC">normal</i>
  <i type="string" name="ALGO"> VeryFast</i>
  <i type="int" name="ISPIN">     1</i>
  <i type="int" name="ICHARG">     2</i>
  <i type="int" name="NELM">   300</i>
  <i type="int" name="ISYM">     0</i>
  <i type="logical" name="LWAVE"> F  </i>
  <i type="int" name="NELM">   300</i>
 </incar>
 <kpoints>
  <generation param="Gamma">
   <v type="int" name="divisions">       1        1        1 </v>
   <v name="usershift">      0.00000000       0.00000000       0.00000000 </v>
   <v name="genvec1">      1.00000000       0.00000000       0.00000000 </v>
   <v name="genvec2">      0.00000000       1.00000000       0.00000000 </v>
   <v name="genvec3">     -0.00000000       0.00000000       1.00000000 </v>
   <v name="shift">      0.00000000       0.00000000       0.00000000 </v>
  </generation>
  <varray name="kpointlist" >
   <v>       0.00000000       0.00000000       0.00000000 </v>
  </varray>
  <varray name="weights" >
   <v>       1.00000000 </v>
  </varray>
 </kpoints>
 <parameters>
  <separator name="general" >
   <i type="string" name="SYSTEM">Fe4OF7_var_7</i>
   <i type="logical" name="LCOMPAT"> F  </i>
  </separator>
  <separator name="electronic" >
   <i type="string" name="PREC">normal</i>
   <i name="ENMAX">    400.00000000</i>
   <i name="ENAUG">    613.61400000</i>
   <i name="EDIFF">      0.00010000</i>
   <i type="int" name="IALGO">    48</i>
   <i type="int" name="IWAVPR">    10</i>
   <i type="int" name="NBANDS">   104</i>
   <i name="NELECT">    174.00000000</i>
   <i type="int" name="TURBO">     0</i>
   <i type="int" name="IRESTART">     0</i>
   <i type="int" name="NREBOOT">     0</i>
   <i type="int" name="NMIN">     0</i>
   <i name="EREF">      0.00000000</i>
   <separator name="electronic smearing" >
    <i type="int" name="ISMEAR">     1</i>
    <i name="SIGMA">      0.20000000</i>
    <i name="KSPACING">      0.50000000</i>
    <i type="logical" name="KGAMMA"> T  </i>
   </separator>
   <separator name="electronic projectors" >
    <i type="logical" name="LREAL"> F  </i>
    <v name="ROPT">      0.00000000      0.00000000      0.00000000</v>
    <i type="int" name="LMAXPAW">  -100</i>
    <i type="int" name="LMAXMIX">     2</i>
    <i type="logical" name="NLSPLINE"> F  </i>
   </separator>
   <separator name="electronic startup" >
    <i type="int" name="ISTART">     0</i>
    <i type="int" name="ICHARG">     2</i>
    <i type="int" name="INIWAV">     1</i>
   </separator>
   <separator name="electronic spin" >
    <i type="int" name="ISPIN">     1</i>
    <i type="logical" name="LNONCOLLINEAR"> F  </i>
    <v name="MAGMOM">      1.00000000      1.00000000      1.00000000      1.00000000      1.00000000      1.00000000      1.00000000      1.00000000      1.00000000      1.00000000      1.00000000      1.00000000      1.00000000      1.00000000      1.00000000      1.00000000      1.00000000      1.00000000      1.00000000      1.00000000
      1.00000000      1.00000000      1.00000000      1.00000000</v>
    <i name="NUPDOWN">     -1.00000000</i>
    <i type="logical" name="LSORBIT"> F  </i>
    <v name="SAXIS">      0.00000000      0.00000000      1.00000000</v>
    <i type="logical" name="LSPIRAL"> F  </i>
    <v name="QSPIRAL">      0.00000000      0.00000000      0.00000000</v>
    <i type="logical" name="LZEROZ"> F  </i>
   </separator>
   <separator name="electronic exchange-correlation" >
    <i type="logical" name="LASPH"> F  </i>
    <i type="logical" name="LMETAGGA"> F  </i>
   </separator>
   <separator name="electronic convergence" >
    <i type="int" name="NELM">   300</i>
    <i type="int" name="NELMDL">   -12</i>
    <i type="int" name="NELMIN">     2</i>
    <i name="ENINI">    400.00000000</i>
    <separator name="electronic convergence detail" >
     <i type="logical" name="LDIAG"> T  </i>
     <i type="logical" name="LSUBROT"> F  </i>
     <i name="WEIMIN">      0.00000000</i>
     <i name="EBREAK">      0.00000024</i>
     <i name="DEPER">      0.30000000</i>
     <i type="int" name="NRMM">     4</i>
     <i name="TIME">      0.40000000</i>
    </separator>
   </separator>
   <separator name="electronic mixer" >
    <i name="AMIX">      0.40000000</i>
    <i name="BMIX">      1.00000000</i>
    <i name="AMIN">      0.10000000</i>
    <i name="AMIX_MAG">      1.60000000</i>
    <i name="BMIX_MAG">      1.00000000</i>
    <separator name="electronic mixer details" >
     <i type="int" name="IMIX">     4</i>
     <i type="int" name="MAXMIX">   -45</i>
     <i name="WC">    100.00000000</i>
     <i type="int" name="INIMIX">     1</i>
     <i type="int" name="MIXPRE">     1</i>
     <i type="int" name="MREMOVE">     5</i>
    </separator>
   </separator>
   <separator name="electronic dipolcorrection" >
    <i type="logical" name="LDIPOL"> F  </i>
    <i type="logical" name="LMONO"> F  </i>
    <i type="int" name="IDIPOL">     0</i>
    <i name="EPSILON">      1.00000000</i>
    <v name="DIPOL">   -100.00000000   -100.00000000   -100.00000000</v>
    <i name="EFIELD">      0.00000000</i>
   </separator>
  </separator>
  <separator name="grids" >
   <i type="int" name="NGX">    28</i>
   <i type="int" name="NGY">    24</i>
   <i type="int" name="NGZ">    54</i>
   <i type="int" name="NGXF">    56</i>
   <i type="int" name="NGYF">    48</i>
   <i type="int" name="NGZF">   108</i>
   <i type="logical" name="ADDGRID"> F  </i>
  </separator>
  <separator name="ionic" >
   <i type="int" name="NSW">     0</i>
   <i type="int" name="IBRION">    -1</i>
   <i type="int" name="ISIF">     2</i>
   <i name="PSTRESS">      0.00000000</i>
   <i name="EDIFFG">      0.00100000</i>
   <i type="int" name="NFREE">     0</i>
   <i name="POTIM">      0.50000000</i>
   <i name="SMASS">     -3.00000000</i>
   <i name="SCALEE">      1.00000000</i>
  </separator>
  <separator name="ionic md" >
   <i name="TEBEG">      0.00010000</i>
   <i name="TEEND">      0.00010000</i>
   <i type="int" name="NBLOCK">     1</i>
   <i type="int" name="KBLOCK">     1</i>
   <i type="int" name="NPACO">   256</i>
   <i name="APACO">     16.00000000</i>
  </separator>
  <separator name="symmetry" >
   <i type="int" name="ISYM">     0</i>
   <i name="SYMPREC">      0.00001000</i>
  </separator>
  <separator name="dos" >
   <i type="logical" name="LORBIT"> F  </i>
   <v name="RWIGS">     -1.00000000     -1.00000000     -1.00000000</v>
   <i type="int" name="NEDOS">   301</i>
   <i name="EMIN">     10.00000000</i>
   <i name="EMAX">    -10.00000000</i>
   <i name="EFERMI">      0.00000000</i>
  </separator>
  <separator name="writing" >
   <i type="int" name="NWRITE">     2</i>
   <i type="logical" name="LWAVE"> F  </i>
   <i type="logical" name="LCHARG"> T  </i>
   <i type="logical" name="LPARD"> F  </i>
   <i type="logical" name="LVTOT"> F  </i>
   <i type="logical" name="LVHAR"> F  </i>
   <i type="logical" name="LELF"> F  </i>
   <i type="logical" name="LOPTICS"> F  </i>
   <v name="STM">      0.00000000      0.00000000      0.00000000      0.00000000      0.00000000      0.00000000      0.00000000</v>
  </separator>
  <separator name="performance" >
   <i type="int" name="NPAR">     4</i>
   <i type="int" name="NSIM">     4</i>
   <i type="int" name="NBLK">    -1</i>
   <i type="logical" name="LPLANE"> T  </i>
   <i type="logical" name="LSCALAPACK"> T  </i>
   <i type="logical" name="LSCAAWARE"> F  </i>
   <i type="logical" name="LSCALU"> F  </i>
   <i type="logical" name="LASYNC"> F  </i>
   <i type="logical" name="LORBITALREAL"> F  </i>
  </separator>
  <separator name="miscellaneous" >
   <i type="int" name="IDIOT">     3</i>
   <i type="logical" name="LMUSIC"> F  </i>
   <v name="POMASS">     55.84700000     16.00000000     18.99800000</v>
   <v name="DARWINR">      0.00000000      0.00000000      0.00000000</v>
   <v name="DARWINV">      1.00000000      1.00000000      1.00000000</v>
   <i type="logical" name="LCORR"> T  </i>
  </separator>
  <i type="logical" name="GGA_COMPAT"> T  </i>
  <i type="logical" name="LBERRY"> F  </i>
  <i type="int" name="ICORELEVEL">     0</i>
  <i type="logical" name="LDAU"> F  </i>
  <i type="int" name="I_CONSTRAINED_M">     0</i>
  <separator name="electronic exchange-correlation" >
   <i type="string" name="GGA">--</i>
   <i type="int" name="VOSKOWN">     0</i>
   <i type="logical" name="LHFCALC"> F  </i>
   <i type="string" name="PRECFOCK"></i>
   <i type="logical" name="LSYMGRAD"> F  </i>
   <i type="logical" name="LHFONE"> F  </i>
   <i type="logical" name="LRHFCALC"> F  </i>
   <i type="logical" name="LTHOMAS"> F  </i>
   <i type="logical" name="LMODELHF"> F  </i>
   <i name="ENCUT4O">     -1.00000000</i>
   <i type="int" name="EXXOEP">     0</i>
   <i type="int" name="FOURORBIT">     0</i>
   <i name="AEXX">      0.00000000</i>
   <i name="HFALPHA">      0.00000000</i>
   <i name="MCALPHA">      0.00000000</i>
   <i name="ALDAX">      1.00000000</i>
   <i name="AGGAX">      1.00000000</i>
   <i name="ALDAC">      1.00000000</i>
   <i name="AGGAC">      1.00000000</i>
   <i type="int" name="NKREDX">     1</i>
   <i type="int" name="NKREDY">     1</i>
   <i type="int" name="NKREDZ">     1</i>
   <i type="logical" name="SHIFTRED"> F  </i>
   <i type="logical" name="ODDONLY"> F  </i>
   <i type="logical" name="EVENONLY"> F  </i>
   <i type="int" name="LMAXFOCK">     0</i>
   <i type="int" name="NMAXFOCKAE">     0</i>
   <i type="logical" name="LFOCKAEDFT"> F  </i>
   <i name="HFSCREEN">      0.00000000</i>
   <i name="HFSCREENC">      0.00000000</i>
   <i type="int" name="NBANDSGWLOW">     0</i>
  </separator>
  <separator name="vdW DFT" >
   <i type="logical" name="LUSE_VDW"> F  </i>
   <i name="Zab_VDW">     -0.84910000</i>
   <i name="PARAM1">      0.12340000</i>
   <i name="PARAM2">      1.00000000</i>
   <i name="PARAM3">      0.00000000</i>
  </separator>
  <separator name="model GW" >
   <i type="int" name="MODEL_GW">     0</i>
   <i name="MODEL_EPS0">      7.47368857</i>
   <i name="MODEL_ALPHA">      1.00000000</i>
  </separator>
  <separator name="linear response parameters" >
   <i type="logical" name="LEPSILON"> F  </i>
   <i type="logical" name="LRPA"> F  </i>
   <i type="logical" name="LNABLA"> F  </i>
   <i type="logical" name="LVEL"> F  </i>
   <i type="int" name="KINTER">     0</i>
   <i name="CSHIFT">      0.10000000</i>
   <i name="OMEGAMAX">     -1.00000000</i>
   <i name="DEG_THRESHOLD">      0.00200000</i>
  </separator>
  <separator name="orbital magnetization" >
   <i type="logical" name="NUCIND"> F  </i>
   <v name="MAGPOS">      0.00000000      0.00000000      0.00000000</v>
   <i type="logical" name="LNICSALL"> T  </i>
   <i type="logical" name="ORBITALMAG"> F  </i>
   <i type="logical" name="LMAGBLOCH"> F  </i>
   <i type="logical" name="LCHIMAG"> F  </i>
   <i type="logical" name="LGAUGE"> T  </i>
   <i type="int" name="MAGATOM">     0</i>
   <v name="MAGDIPOL">      0.00000000      0.00000000      0.00000000</v>
   <v name="AVECCONST">      0.00000000      0.00000000      0.00000000</v>
  </separator>
  <separator name="response functions" >
   <i type="logical" name="LADDER"> F  </i>
   <i type="logical" name="LFXC"> F  </i>
   <i type="logical" name="LHARTREE"> T  </i>
   <i type="int" name="IBSE">     0</i>
   <i type="logical" name="LTCTE"> F  </i>
   <i type="logical" name="LTETE"> F  </i>
   <i type="logical" name="LTRIPLET"> F  </i>
   <i type="logical" name="LFXCEPS"> F  </i>
   <i type="logical" name="LFXHEG"> F  </i>
   <i type="logical" name="L2ORDER"> F  </i>
   <i type="logical" name="LUSEW"> F  </i>
   <i name="ENCUTGW">     -2.00000000</i>
   <i name="ENCUTGWSOFT">     -2.00000000</i>
   <i name="ENCUTLF">     -1.00000000</i>
   <i type="int" name="LMAXMP2">    -1</i>
   <i name="SCISSOR">      0.00000000</i>
   <i type="int" name="NOMEGA">     0</i>
   <i type="int" name="NOMEGAR">     0</i>
   <i type="int" name="NBANDSGW">    -1</i>
   <i type="int" name="NBANDSO">    -1</i>
   <i type="int" name="NBANDSV">    -1</i>
   <i type="int" name="NELM">   300</i>
   <i type="int" name="DIM">     3</i>
   <i type="int" name="ANTIRES">     0</i>
   <i name="OMEGAMAX">    -30.00000000</i>
   <i name="OMEGAMIN">    -30.00000000</i>
   <i name="OMEGATL">   -200.00000000</i>
   <i type="int" name="OMEGAGRID">     0</i>
   <i name="CSHIFT">     -0.10000000</i>
   <i type="logical" name="SELFENERGY"> F  </i>
   <i type="logical" name="LSPECTRAL"> F  </i>
   <i type="logical" name="ODDONLYGW"> F  </i>
   <i type="logical" name="EVENONLYGW"> F  </i>
   <i type="int" name="NKREDLFX">     1</i>
   <i type="int" name="NKREDLFY">     1</i>
   <i type="int" name="NKREDLFZ">     1</i>
   <i type="int" name="MAXMEM">  1800</i>
   <i type="int" name="TELESCOPE">     0</i>
   <i type="int" name="TAUPAR">     1</i>
  </separator>
  <separator name="External order field" >
   <i name="OFIELD_KAPPA">      0.00000000</i>
   <v name="OFIELD_K">      0.00000000      0.00000000      0.00000000</v>
   <i name="OFIELD_Q6_NEAR">      0.00000000</i>
   <i name="OFIELD_Q6_FAR">      0.00000000</i>
   <i name="OFIELD_A">      0.00000000</i>
  </separator>
 </parameters>
 <atominfo>
  <atoms>      24 </atoms>
  <types>       3 </types>
  <array name="atoms" >
   <dimension dim="1">ion</dimension>
   <field type="string">element</field>
   <field type="int">atomtype</field>
   <set>
    <rc><c>Fe</c><c>   1</c></rc>
    <rc><c>Fe</c><c>   1</c></rc>
    <rc><c>Fe</c><c>   1</c></rc>
    <rc><c>Fe</c><c>   1</c></rc>
    <rc><c>Fe</c><c>   1</c></rc>
    <rc><c>Fe</c><c>   1</c></rc>
    <rc><c>Fe</c><c>   1</c></rc>
    <rc><c>Fe</c><c>   1</c></rc>
    <rc><c>O </c><c>   2</c></rc>
    <rc><c>O </c><c>   2</c></rc>
    <rc><c>F </c><c>   3</c></rc>
    <rc><c>F </c><c>   3</c></rc>
    <rc><c>F </c><c>   3</c></rc>
    <rc><c>F </c><c>   3</c></rc>
    <rc><c>F </c><c>   3</c></rc>
    <rc><c>F </c><c>   3</c></rc>
    <rc><c>F </c><c>   3</c></rc>
    <rc><c>F </c><c>   3</c></rc>
    <rc><c>F </c><c>   3</c></rc>
    <rc><c>F </c><c>   3</c></rc>
    <rc><c>F </c><c>   3</c></rc>
    <rc><c>F </c><c>   3</c></rc>
    <rc><c>F </c><c>   3</c></rc>
    <rc><c>F </c><c>   3</c></rc>
   </set>
  </array>
  <array name="atomtypes" >
   <dimension dim="1">type</dimension>
   <field type="int">atomspertype</field>
   <field type="string">element</field>
   <field>mass</field>
   <field>valence</field>
   <field type="string">pseudopotential</field>
   <set>
    <rc><c>   8</c><c>Fe</c><c>     55.84700000</c><c>      8.00000000</c><c>  PAW_PBE Fe 06Sep2000                  </c></rc>
    <rc><c>   2</c><c>O </c><c>     16.00000000</c><c>      6.00000000</c><c>  PAW_PBE O 08Apr2002                   </c></rc>
    <rc><c>  14</c><c>F </c><c>     18.99800000</c><c>      7.00000000</c><c>  PAW_PBE F 08Apr2002                   </c></rc>
   </set>
  </array>
 </atominfo>
 <structure name="initialpos" >
  <crystal>
   <varray name="basis" >
    <v>       5.73591900       0.00000000      -0.79026700 </v>
    <v>       0.00000000       4.78544200       0.00000000 </v>
    <v>       0.05144800       0.00000000      10.88396600 </v>
   </varray>
   <i name="volume">    298.94754291 </i>
   <varray name="rec_basis" >
    <v>       0.17422651       0.00000000      -0.00082356 </v>
    <v>       0.00000000       0.20896711       0.00000000 </v>
    <v>       0.01265030       0.00000000       0.09181848 </v>
   </varray>
  </crystal>
  <varray name="positions" >
   <v>       0.24699400       0.25400800       0.74280900 </v>
   <v>       0.24699400       0.75149400       0.24623300 </v>
   <v>       0.51485700       0.23976700       0.49879200 </v>
   <v>       0.51287400       0.75502400       0.99879200 </v>
   <v>       0.75373900       0.23127500       0.26486200 </v>
   <v>       0.75373900       0.76872500       0.76486200 </v>
   <v>       0.99045900       0.24137200       0.99652900 </v>
   <v>       0.99045900       0.75862800       0.49652900 </v>
   <v>       0.77857200       0.05847800       0.41725200 </v>
   <v>       0.77857200       0.93733800       0.91725200 </v>
   <v>       0.01370000       0.05755600       0.18278600 </v>
   <v>       0.01370000       0.94244400       0.68278600 </v>
   <v>       0.22224900       0.44944100       0.57080400 </v>
   <v>       0.22224900       0.55055900       0.07080400 </v>
   <v>       0.27923300       0.05174700       0.92203700 </v>
   <v>       0.27923300       0.94825300       0.42203700 </v>
   <v>       0.48187500       0.45353000       0.31584000 </v>
   <v>       0.48187500       0.54647000       0.81584000 </v>
   <v>       0.52253600       0.03560000       0.67416600 </v>
   <v>       0.52253600       0.96440000       0.17416600 </v>
   <v>       0.72235300       0.44302000       0.09109400 </v>
   <v>       0.71530200       0.55698000       0.59109400 </v>
   <v>       0.97343300       0.45650500       0.81960400 </v>
   <v>       0.97343300       0.54349500       0.31960400 </v>
  </varray>
 </structure>
 <calculation>
  <scstep>
   <time name="diag">    0.91    1.29</time>
   <time name="diis">    0.15    0.21</time>
   <time name="orth">    0.04    0.04</time>
   <time name="total">    1.33    1.88</time>
   <energy>
    <i name="alphaZ">    633.67993902 </i>
    <i name="ewald"> -10608.00479183 </i>
    <i name="hartreedc">  -4393.34002944 </i>
    <i name="XCdc">    595.48045773 </i>
    <i name="pawpsdc">  12680.77512887 </i>
    <i name="pawaedc"> -12817.41364524 </i>
    <i name="eentropy">      0.03602366 </i>
    <i name="bandstr">   1172.53946239 </i>
    <i name="atom">  14851.27451460 </i>
    <i name="e_fr_energy">   2115.02705976 </i>
    <i name="e_wo_entrp">   2114.99103610 </i>
    <i name="e_0_energy">   2115.01505187 </i>
   </energy>
  </scstep>
  <scstep>
   <time name="diag">    0.08    0.11</time>
   <time name="diis">    0.19    0.19</time>
   <time name="orth">    0.02    0.02</time>
   <time name="total">    0.28    0.31</time>
   <energy>
    <i name="e_fr_energy">    657.02676721 </i>
    <i name="e_wo_entrp">    657.11796697 </i>
    <i name="e_0_energy">    657.05716713 </i>
   </energy>
  </scstep>
  <scstep>
   <time name="diag">    0.07    0.07</time>
   <time name="diis">    0.21    0.21</time>
   <time name="orth">    0.02    0.02</time>
   <time name="total">    0.29    0.30</time>
   <energy>
    <i name="e_fr_energy">    225.68488876 </i>
    <i name="e_wo_entrp">    225.58294516 </i>
    <i name="e_0_energy">    225.65090756 </i>
   </energy>
  </scstep>
  <scstep>
   <time name="diag">    0.07    0.07</time>
   <time name="diis">    0.18    0.18</time>
   <time name="orth">    0.02    0.02</time>
   <time name="total">    0.27    0.28</time>
   <energy>
    <i name="e_fr_energy">     42.60741369 </i>
    <i name="e_wo_entrp">     42.63810393 </i>
    <i name="e_0_energy">     42.61764377 </i>
   </energy>
  </scstep>
  <scstep>
   <time name="diag">    0.06    0.06</time>
   <time name="diis">    0.08    0.11</time>
   <time name="orth">    0.01    0.01</time>
   <time name="total">    0.16    0.19</time>
   <energy>
    <i name="e_fr_energy">    -62.11803083 </i>
    <i name="e_wo_entrp">    -62.11015792 </i>
    <i name="e_0_energy">    -62.11540653 </i>
   </energy>
  </scstep>
  <scstep>
   <time name="diag">    0.03    0.07</time>
   <time name="diis">    0.08    0.14</time>
   <time name="orth">    0.02    0.02</time>
   <time name="total">    0.13    0.24</time>
   <energy>
    <i name="e_fr_energy">   -111.31031887 </i>
    <i name="e_wo_entrp">   -111.31407925 </i>
    <i name="e_0_energy">   -111.31157233 </i>
   </energy>
  </scstep>
  <scstep>
   <time name="diag">    0.05    0.06</time>
   <time name="diis">    0.10    0.15</time>
   <time name="orth">    0.05    0.09</time>
   <time name="total">    0.21    0.32</time>
   <energy>
    <i name="e_fr_energy">   -135.40560039 </i>
    <i name="e_wo_entrp">   -135.45429463 </i>
    <i name="e_0_energy">   -135.42183181 </i>
   </energy>
  </scstep>
  <scstep>
   <time name="diag">    0.09    0.19</time>
   <time name="diis">    0.12    0.15</time>
   <time name="orth">    0.01    0.01</time>
   <time name="total">    0.22    0.35</time>
   <energy>
    <i name="e_fr_energy">   -145.40611657 </i>
    <i name="e_wo_entrp">   -145.48093104 </i>
    <i name="e_0_energy">   -145.43105473 </i>
   </energy>
  </scstep>
  <scstep>
   <time name="diag">    0.03    0.03</time>
   <time name="diis">    0.38    0.52</time>
   <time name="orth">    0.03    0.04</time>
   <time name="total">    0.44    0.60</time>
   <energy>
    <i name="e_fr_energy">   -155.35765025 </i>
    <i name="e_wo_entrp">   -155.42736835 </i>
    <i name="e_0_energy">   -155.38088962 </i>
   </energy>
  </scstep>
  <scstep>
   <time name="diag">    0.08    0.08</time>
   <time name="diis">    0.50    0.50</time>
   <time name="orth">    0.06    0.06</time>
   <time name="total">    0.65    0.65</time>
   <energy>
    <i name="e_fr_energy">   -155.66554538 </i>
    <i name="e_wo_entrp">   -155.69878922 </i>
    <i name="e_0_energy">   -155.67662666 </i>
   </energy>
  </scstep>
  <scstep>
   <time name="diag">    0.06    0.06</time>
   <time name="diis">    0.48    0.48</time>
   <time name="orth">    0.04    0.04</time>
   <time name="total">    0.59    0.59</time>
   <energy>
    <i name="e_fr_energy">   -155.87683909 </i>
    <i name="e_wo_entrp">   -155.89749611 </i>
    <i name="e_0_energy">   -155.88372476 </i>
   </energy>
  </scstep>
  <scstep>
   <time name="diag">    0.10    0.10</time>
   <time name="diis">    0.41    0.41</time>
   <time name="orth">    0.01    0.01</time>
   <time name="total">    0.64    0.64</time>
   <energy>
    <i name="e_fr_energy">   -155.98788017 </i>
    <i name="e_wo_entrp">   -156.01299071 </i>
    <i name="e_0_energy">   -155.99625035 </i>
   </energy>
  </scstep>
  <scstep>
   <time name="diag">    0.06    0.06</time>
   <time name="diis">    0.35    0.35</time>
   <time name="orth">    0.01    0.01</time>
   <time name="total">    0.48    0.48</time>
   <energy>
    <i name="e_fr_energy">   -150.39029529 </i>
    <i name="e_wo_entrp">   -150.41226171 </i>
    <i name="e_0_energy">   -150.39761743 </i>
   </energy>
  </scstep>
  <scstep>
   <time name="diag">    0.12    0.12</time>
   <time name="diis">    0.48    0.48</time>
   <time name="orth">    0.09    0.09</time>
   <time name="total">    0.77    0.77</time>
   <energy>
    <i name="e_fr_energy">   -181.15573060 </i>
    <i name="e_wo_entrp">   -181.24131679 </i>
    <i name="e_0_energy">   -181.18425933 </i>
   </energy>
  </scstep>
  <scstep>
   <time name="diag">    0.19    0.19</time>
   <time name="diis">    0.43    0.43</time>
   <time name="orth">    0.02    0.02</time>
   <time name="total">    0.78    0.78</time>
   <energy>
    <i name="e_fr_energy">   -141.30947773 </i>
    <i name="e_wo_entrp">   -141.22547739 </i>
    <i name="e_0_energy">   -141.28147762 </i>
   </energy>
  </scstep>
  <scstep>
   <time name="diag">    0.29    0.29</time>
   <time name="diis">    0.41    0.41</time>
   <time name="orth">    0.03    0.03</time>
   <time name="total">    0.92    0.92</time>
   <energy>
    <i name="e_fr_energy">   -143.36498497 </i>
    <i name="e_wo_entrp">   -143.35918879 </i>
    <i name="e_0_energy">   -143.36305291 </i>
   </energy>
  </scstep>
  <scstep>
   <time name="diag">    0.10    0.10</time>
   <time name="diis">    0.40    0.40</time>
   <time name="orth">    0.01    0.01</time>
   <time name="total">    0.76    0.76</time>
   <energy>
    <i name="e_fr_energy">   -153.19669970 </i>
    <i name="e_wo_entrp">   -153.16544459 </i>
    <i name="e_0_energy">   -153.18628133 </i>
   </energy>
  </scstep>
  <scstep>
   <time name="diag">    0.04    0.04</time>
   <time name="diis">    0.33    0.33</time>
   <time name="orth">    0.02    0.02</time>
   <time name="total">    0.49    0.49</time>
   <energy>
    <i name="e_fr_energy">   -146.04006226 </i>
    <i name="e_wo_entrp">   -146.06790574 </i>
    <i name="e_0_energy">   -146.04934342 </i>
   </energy>
  </scstep>
  <scstep>
   <time name="diag">    0.06    0.06</time>
   <time name="diis">    0.38    0.38</time>
   <time name="orth">    0.02    0.02</time>
   <time name="total">    0.61    0.62</time>
   <energy>
    <i name="e_fr_energy">   -139.97842138 </i>
    <i name="e_wo_entrp">   -139.84322511 </i>
    <i name="e_0_energy">   -139.93335596 </i>
   </energy>
  </scstep>
  <scstep>
   <time name="diag">    0.05    0.06</time>
   <time name="diis">    0.33    0.33</time>
   <time name="orth">    0.06    0.06</time>
   <time name="total">    0.55    0.55</time>
   <energy>
    <i name="e_fr_energy">   -144.64469445 </i>
    <i name="e_wo_entrp">   -144.65370074 </i>
    <i name="e_0_energy">   -144.64769655 </i>
   </energy>
  </scstep>
  <scstep>
   <time name="diag">    0.06    0.06</time>
   <time name="diis">    0.32    0.32</time>
   <time name="orth">    0.04    0.04</time>
   <time name="total">    0.55    0.55</time>
   <energy>
    <i name="e_fr_energy">   -136.28288470 </i>
    <i name="e_wo_entrp">   -136.26927761 </i>
    <i name="e_0_energy">   -136.27834900 </i>
   </energy>
  </scstep>
  <scstep>
   <time name="diag">    0.06    0.06</time>
   <time name="diis">    0.36    0.36</time>
   <time name="orth">    0.01    0.01</time>
   <time name="total">    0.63    0.63</time>
   <energy>
    <i name="e_fr_energy">   -142.88690613 </i>
    <i name="e_wo_entrp">   -142.83803828 </i>
    <i name="e_0_energy">   -142.87061684 </i>
   </energy>
  </scstep>
  <scstep>
   <time name="diag">    0.15    0.16</time>
   <time name="diis">    0.33    0.33</time>
   <time name="orth">    0.01    0.01</time>
   <time name="total">    0.70    0.70</time>
   <energy>
    <i name="e_fr_energy">   -133.97878851 </i>
    <i name="e_wo_entrp">   -133.98845213 </i>
    <i name="e_0_energy">   -133.98200972 </i>
   </energy>
  </scstep>
  <scstep>
   <time name="diag">    0.10    0.10</time>
   <time name="diis">    0.33    0.33</time>
   <time name="orth">    0.01    0.01</time>
   <time name="total">    0.53    0.53</time>
   <energy>
    <i name="e_fr_energy">   -134.08192731 </i>
    <i name="e_wo_entrp">   -134.17730210 </i>
    <i name="e_0_energy">   -134.11371891 </i>
   </energy>
  </scstep>
  <scstep>
   <time name="diag">    0.28    0.28</time>
   <time name="diis">    0.35    0.35</time>
   <time name="orth">    0.02    0.02</time>
   <time name="total">    0.81    0.81</time>
   <energy>
    <i name="e_fr_energy">   -132.91785258 </i>
    <i name="e_wo_entrp">   -132.87332448 </i>
    <i name="e_0_energy">   -132.90300988 </i>
   </energy>
  </scstep>
  <scstep>
   <time name="diag">    0.04    0.04</time>
   <time name="diis">    0.33    0.33</time>
   <time name="orth">    0.02    0.02</time>
   <time name="total">    0.50    0.50</time>
   <energy>
    <i name="e_fr_energy">   -132.50457901 </i>
    <i name="e_wo_entrp">   -132.50963096 </i>
    <i name="e_0_energy">   -132.50626299 </i>
   </energy>
  </scstep>
  <scstep>
   <time name="diag">    0.06    0.06</time>
   <time name="diis">    0.49    0.49</time>
   <time name="orth">    0.02    0.02</time>
   <time name="total">    0.71    0.71</time>
   <energy>
    <i name="e_fr_energy">   -132.36244397 </i>
    <i name="e_wo_entrp">   -132.36509680 </i>
    <i name="e_0_energy">   -132.36332825 </i>
   </energy>
  </scstep>
  <scstep>
   <time name="diag">    0.12    0.12</time>
   <time name="diis">    0.44    0.44</time>
   <time name="orth">    0.02    0.02</time>
   <time name="total">    0.69    0.69</time>
   <energy>
    <i name="e_fr_energy">   -132.38807038 </i>
    <i name="e_wo_entrp">   -132.39089095 </i>
    <i name="e_0_energy">   -132.38901057 </i>
   </energy>
  </scstep>
  <scstep>
   <time name="diag">    0.04    0.04</time>
   <time name="diis">    0.37    0.37</time>
   <time name="orth">    0.01    0.01</time>
   <time name="total">    0.57    0.57</time>
   <energy>
    <i name="e_fr_energy">   -132.45441972 </i>
    <i name="e_wo_entrp">   -132.45634302 </i>
    <i name="e_0_energy">   -132.45506082 </i>
   </energy>
  </scstep>
  <scstep>
   <time name="diag">    0.09    0.09</time>
   <time name="diis">    0.43    0.43</time>
   <time name="orth">    0.05    0.05</time>
   <time name="total">    0.68    0.69</time>
   <energy>
    <i name="e_fr_energy">   -132.46883616 </i>
    <i name="e_wo_entrp">   -132.47694116 </i>
    <i name="e_0_energy">   -132.47153783 </i>
   </energy>
  </scstep>
  <scstep>
   <time name="diag">    0.08    0.08</time>
   <time name="diis">    0.43    0.43</time>
   <time name="orth">    0.06    0.06</time>
   <time name="total">    0.67    0.67</time>
   <energy>
    <i name="e_fr_energy">   -132.47401015 </i>
    <i name="e_wo_entrp">   -132.48491071 </i>
    <i name="e_0_energy">   -132.47764367 </i>
   </energy>
  </scstep>
  <scstep>
   <time name="diag">    0.08    0.08</time>
   <time name="diis">    0.37    0.37</time>
   <time name="orth">    0.05    0.05</time>
   <time name="total">    0.66    0.67</time>
   <energy>
    <i name="e_fr_energy">   -132.47636392 </i>
    <i name="e_wo_entrp">   -132.49163239 </i>
    <i name="e_0_energy">   -132.48145341 </i>
   </energy>
  </scstep>
  <scstep>
   <time name="diag">    0.06    0.06</time>
   <time name="diis">    0.33    0.34</time>
   <time name="orth">    0.02    0.02</time>
   <time name="total">    0.67    0.68</time>
   <energy>
    <i name="e_fr_energy">   -132.46703799 </i>
    <i name="e_wo_entrp">   -132.47794583 </i>
    <i name="e_0_energy">   -132.47067394 </i>
   </energy>
  </scstep>
  <scstep>
   <time name="diag">    0.16    0.16</time>
   <time name="diis">    0.28    0.28</time>
   <time name="orth">    0.01    0.01</time>
   <time name="total">    0.53    0.53</time>
   <energy>
    <i name="e_fr_energy">   -132.46691440 </i>
    <i name="e_wo_entrp">   -132.48023882 </i>
    <i name="e_0_energy">   -132.47135587 </i>
   </energy>
  </scstep>
  <scstep>
   <time name="diag">    0.04    0.04</time>
   <time name="diis">    0.33    0.33</time>
   <time name="orth">    0.01    0.01</time>
   <time name="total">    0.53    0.53</time>
   <energy>
    <i name="e_fr_energy">   -132.46630044 </i>
    <i name="e_wo_entrp">   -132.47945055 </i>
    <i name="e_0_energy">   -132.47068381 </i>
   </energy>
  </scstep>
  <scstep>
   <time name="diag">    0.07    0.07</time>
   <time name="diis">    0.26    0.26</time>
   <time name="orth">    0.04    0.04</time>
   <time name="total">    0.44    0.45</time>
   <energy>
    <i name="alphaZ">    633.67993902 </i>
    <i name="ewald"> -10608.00479183 </i>
    <i name="hartreedc">  -4472.27809029 </i>
    <i name="XCdc">    604.68016282 </i>
    <i name="pawpsdc">  14868.88309862 </i>
    <i name="pawaedc"> -15009.55199821 </i>
    <i name="eentropy">      0.01294548 </i>
    <i name="bandstr">  -1001.16198099 </i>
    <i name="atom">  14851.27451460 </i>
    <i name="e_fr_energy">   -132.46620078 </i>
    <i name="e_wo_entrp">   -132.47914626 </i>
    <i name="e_0_energy">   -132.47051594 </i>
   </energy>
  </scstep>
  <structure>
   <crystal>
    <varray name="basis" >
     <v>       5.73591900       0.00000000      -0.79026700 </v>
     <v>       0.00000000       4.78544200       0.00000000 </v>
     <v>       0.05144800       0.00000000      10.88396600 </v>
    </varray>
    <i name="volume">    298.94754291 </i>
    <varray name="rec_basis" >
     <v>       0.17422651       0.00000000      -0.00082356 </v>
     <v>       0.00000000       0.20896711       0.00000000 </v>
     <v>       0.01265030       0.00000000       0.09181848 </v>
    </varray>
   </crystal>
   <varray name="positions" >
    <v>       0.24699400       0.25400800       0.74280900 </v>
    <v>       0.24699400       0.75149400       0.24623300 </v>
    <v>       0.51485700       0.23976700       0.49879200 </v>
    <v>       0.51287400       0.75502400       0.99879200 </v>
    <v>       0.75373900       0.23127500       0.26486200 </v>
    <v>       0.75373900       0.76872500       0.76486200 </v>
    <v>       0.99045900       0.24137200       0.99652900 </v>
    <v>       0.99045900       0.75862800       0.49652900 </v>
    <v>       0.77857200       0.05847800       0.41725200 </v>
    <v>       0.77857200       0.93733800       0.91725200 </v>
    <v>       0.01370000       0.05755600       0.18278600 </v>
    <v>       0.01370000       0.94244400       0.68278600 </v>
    <v>       0.22224900       0.44944100       0.57080400 </v>
    <v>       0.22224900       0.55055900       0.07080400 </v>
    <v>       0.27923300       0.05174700       0.92203700 </v>
    <v>       0.27923300       0.94825300       0.42203700 </v>
    <v>       0.48187500       0.45353000       0.31584000 </v>
    <v>       0.48187500       0.54647000       0.81584000 </v>
    <v>       0.52253600       0.03560000       0.67416600 </v>
    <v>       0.52253600       0.96440000       0.17416600 </v>
    <v>       0.72235300       0.44302000       0.09109400 </v>
    <v>       0.71530200       0.55698000       0.59109400 </v>
    <v>       0.97343300       0.45650500       0.81960400 </v>
    <v>       0.97343300       0.54349500       0.31960400 </v>
   </varray>
  </structure>
  <varray name="forces" >
   <v>       0.12777388      -0.25098729       0.13776936 </v>
   <v>       0.15982241       0.01673502      -0.26088356 </v>
   <v>       0.95398304      -0.59077816      -0.87041679 </v>
   <v>       0.99858257       0.71063941      -0.82086572 </v>
   <v>       0.09964176       0.26994404      -0.18715740 </v>
   <v>       0.05448027      -0.36385291      -0.15376483 </v>
   <v>      -0.84937243      -1.26200071      -0.67632478 </v>
   <v>      -0.95033714       1.24728779      -0.65769340 </v>
   <v>      -0.46879425      -0.20694858       1.38050079 </v>
   <v>      -0.48275630       0.32963478       1.40496774 </v>
   <v>       0.27845723      -0.38902910       0.02280162 </v>
   <v>       0.26663512       0.40373360      -0.10197389 </v>
   <v>      -0.02604228      -0.17791817       0.24981985 </v>
   <v>       0.04178156       0.20993157       0.27716225 </v>
   <v>      -0.26903611       0.27630748      -0.05473877 </v>
   <v>      -0.22302777      -0.28798660      -0.03410071 </v>
   <v>      -0.24202381      -0.11028689       0.57648238 </v>
   <v>      -0.24306056       0.12700233       0.49041911 </v>
   <v>      -0.30431733       0.71340842       0.10232068 </v>
   <v>      -0.31837815      -0.67190021       0.17429168 </v>
   <v>       0.19908411       0.03898999      -0.90016917 </v>
   <v>       0.37415587      -0.07173699      -0.88486420 </v>
   <v>       0.40792801      -0.36283090       0.34107598 </v>
   <v>       0.41482029       0.40264208       0.44534179 </v>
  </varray>
  <varray name="stress" >
   <v>    -245.21675496       0.27945644      18.96703022 </v>
   <v>       0.27945681    -259.50066293       0.20714155 </v>
   <v>      18.96703026       0.20714020    -290.56310327 </v>
  </varray>
  <energy>
   <i name="e_fr_energy">   -132.46620078 </i>
   <i name="e_wo_entrp">   -132.47051594 </i>
   <i name="e_0_energy">      0.01294548 </i>
  </energy>
  <time name="totalsc">   22.12   23.26</time>
  <eigenvalues>
   <array>
    <dimension dim="1">band</dimension>
    <dimension dim="2">kpoint</dimension>
    <dimension dim="3">spin</dimension>
    <field>eigene</field>
    <field>occ</field>
    <set>
     <set comment="spin 1">
      <set comment="kpoint 1">
       <r>  -22.6745    1.0000 </r>
       <r>  -22.5962    1.0000 </r>
       <r>  -22.3585    1.0000 </r>
       <r>  -22.3121    1.0000 </r>
       <r>  -22.2975    1.0000 </r>
       <r>  -22.2672    1.0000 </r>
       <r>  -22.2107    1.0000 </r>
       <r>  -22.1849    1.0000 </r>
       <r>  -22.1543    1.0000 </r>
       <r>  -22.0633    1.0000 </r>
       <r>  -22.0331    1.0000 </r>
       <r>  -21.9382    1.0000 </r>
       <r>  -21.8297    1.0000 </r>
       <r>  -21.8039    1.0000 </r>
       <r>  -16.7541    1.0000 </r>
       <r>  -16.7141    1.0000 </r>
       <r>   -6.1157    1.0000 </r>
       <r>   -5.7694    1.0000 </r>
       <r>   -5.3481    1.0000 </r>
       <r>   -5.2118    1.0000 </r>
       <r>   -5.1747    1.0000 </r>
       <r>   -5.0436    1.0000 </r>
       <r>   -4.9740    1.0000 </r>
       <r>   -4.9207    1.0000 </r>
       <r>   -4.8561    1.0000 </r>
       <r>   -4.8166    1.0000 </r>
       <r>   -4.7053    1.0000 </r>
       <r>   -4.5758    1.0000 </r>
       <r>   -4.5526    1.0000 </r>
       <r>   -4.5505    1.0000 </r>
       <r>   -4.4226    1.0000 </r>
       <r>   -4.3990    1.0000 </r>
       <r>   -4.3475    1.0000 </r>
       <r>   -4.3139    1.0000 </r>
       <r>   -4.2632    1.0000 </r>
       <r>   -4.2267    1.0000 </r>
       <r>   -4.1921    1.0000 </r>
       <r>   -4.1716    1.0000 </r>
       <r>   -4.0390    1.0000 </r>
       <r>   -4.0190    1.0000 </r>
       <r>   -3.9959    1.0000 </r>
       <r>   -3.9460    1.0000 </r>
       <r>   -3.9239    1.0000 </r>
       <r>   -3.8777    1.0000 </r>
       <r>   -3.6941    1.0000 </r>
       <r>   -3.6191    1.0000 </r>
       <r>   -3.4464    1.0000 </r>
       <r>   -3.4040    1.0000 </r>
       <r>   -3.3212    1.0000 </r>
       <r>   -3.2381    1.0000 </r>
       <r>   -3.0653    1.0000 </r>
       <r>   -3.0196    1.0000 </r>
       <r>   -2.9719    1.0000 </r>
       <r>   -2.9564    1.0000 </r>
       <r>   -2.7958    1.0000 </r>
       <r>   -2.7514    1.0000 </r>
       <r>   -2.7189    1.0000 </r>
       <r>   -2.6750    1.0000 </r>
       <r>   -2.4968    1.0000 </r>
       <r>   -2.4413    1.0000 </r>
       <r>   -2.3589    1.0000 </r>
       <r>   -2.2862    1.0000 </r>
       <r>   -1.5905    1.0000 </r>
       <r>   -1.5519    1.0000 </r>
       <r>    0.9145    1.0000 </r>
       <r>    0.9202    1.0000 </r>
       <r>    0.9947    1.0000 </r>
       <r>    1.0053    1.0001 </r>
       <r>    1.0361    1.0001 </r>
       <r>    1.0411    1.0001 </r>
       <r>    1.0640    1.0003 </r>
       <r>    1.1013    1.0007 </r>
       <r>    1.1645    1.0027 </r>
       <r>    1.1847    1.0040 </r>
       <r>    1.2441    1.0109 </r>
       <r>    1.2545    1.0127 </r>
       <r>    1.3022    1.0227 </r>
       <r>    1.3043    1.0232 </r>
       <r>    1.3367    1.0304 </r>
       <r>    1.3947    1.0344 </r>
       <r>    1.4237    1.0252 </r>
       <r>    1.4342    1.0189 </r>
       <r>    1.4729    0.9776 </r>
       <r>    1.5076    0.9115 </r>
       <r>    1.5371    0.8316 </r>
       <r>    1.5554    0.7718 </r>
       <r>    1.5726    0.7095 </r>
       <r>    1.6541    0.3739 </r>
       <r>    1.6619    0.3423 </r>
       <r>    1.8032   -0.0107 </r>
       <r>    1.8735   -0.0354 </r>
       <r>    1.9218   -0.0281 </r>
       <r>    1.9582   -0.0198 </r>
       <r>    2.0307   -0.0071 </r>
       <r>    2.1038   -0.0018 </r>
       <r>    2.1097   -0.0016 </r>
       <r>    2.3522   -0.0000 </r>
       <r>    2.4255   -0.0000 </r>
       <r>    2.7767   -0.0000 </r>
       <r>    2.8643   -0.0000 </r>
       <r>    2.9148   -0.0000 </r>
       <r>    2.9348   -0.0000 </r>
       <r>    3.0422   -0.0000 </r>
       <r>    3.2192   -0.0000 </r>
      </set>
     </set>
    </set>
   </array>
  </eigenvalues>
  <separator name="orbital magnetization" >
   <v name="MAGDIPOLOUT">      0.00000000      0.00000000      0.00000000</v>
  </separator>
  <dos>
   <i name="efermi">      1.62389747 </i>
   <total>
    <array>
     <dimension dim="1">gridpoints</dimension>
     <dimension dim="2">spin</dimension>
     <field>energy</field>
     <field>total</field>
     <field>integrated</field>
     <set>
      <set comment="spin 1">
       <r>   -24.6745     0.0000     0.0000 </r>
       <r>   -24.5748     0.0000     0.0000 </r>
       <r>   -24.4752     0.0000     0.0000 </r>
       <r>   -24.3756     0.0000     0.0000 </r>
       <r>   -24.2759    -0.0000    -0.0000 </r>
       <r>   -24.1763    -0.0000    -0.0000 </r>
       <r>   -24.0766    -0.0000    -0.0000 </r>
       <r>   -23.9770    -0.0000    -0.0000 </r>
       <r>   -23.8773    -0.0000    -0.0000 </r>
       <r>   -23.7777    -0.0000    -0.0000 </r>
       <r>   -23.6780    -0.0000    -0.0000 </r>
       <r>   -23.5784    -0.0000    -0.0000 </r>
       <r>   -23.4787    -0.0000    -0.0000 </r>
       <r>   -23.3791    -0.0001    -0.0000 </r>
       <r>   -23.2795    -0.0017    -0.0002 </r>
       <r>   -23.1798    -0.0218    -0.0023 </r>
       <r>   -23.0802    -0.1558    -0.0179 </r>
       <r>   -22.9805    -0.5549    -0.0732 </r>
       <r>   -22.8809    -0.4733    -0.1203 </r>
       <r>   -22.7812     2.9327     0.1719 </r>
       <r>   -22.6816    10.0590     1.1742 </r>
       <r>   -22.5819    13.5134     2.5208 </r>
       <r>   -22.4823    11.9840     3.7149 </r>
       <r>   -22.3826    19.6808     5.6761 </r>
       <r>   -22.2830    38.7168     9.5340 </r>
       <r>   -22.1833    49.3000    14.4465 </r>
       <r>   -22.0837    43.1291    18.7442 </r>
       <r>   -21.9841    32.2080    21.9536 </r>
       <r>   -21.8844    26.0699    24.5513 </r>
       <r>   -21.7848    21.4248    26.6862 </r>
       <r>   -21.6851    12.2278    27.9046 </r>
       <r>   -21.5855     2.7478    28.1784 </r>
       <r>   -21.4858    -0.8887    28.0899 </r>
       <r>   -21.3862    -0.7006    28.0201 </r>
       <r>   -21.2865    -0.1770    28.0024 </r>
       <r>   -21.1869    -0.0228    28.0002 </r>
       <r>   -21.0872    -0.0016    28.0000 </r>
       <r>   -20.9876    -0.0001    28.0000 </r>
       <r>   -20.8880    -0.0000    28.0000 </r>
       <r>   -20.7883    -0.0000    28.0000 </r>
       <r>   -20.6887    -0.0000    28.0000 </r>
       <r>   -20.5890    -0.0000    28.0000 </r>
       <r>   -20.4894    -0.0000    28.0000 </r>
       <r>   -20.3897     0.0000    28.0000 </r>
       <r>   -20.2901     0.0000    28.0000 </r>
       <r>   -20.1904     0.0000    28.0000 </r>
       <r>   -20.0908     0.0000    28.0000 </r>
       <r>   -19.9911     0.0000    28.0000 </r>
       <r>   -19.8915     0.0000    28.0000 </r>
       <r>   -19.7919     0.0000    28.0000 </r>
       <r>   -19.6922     0.0000    28.0000 </r>
       <r>   -19.5926     0.0000    28.0000 </r>
       <r>   -19.4929     0.0000    28.0000 </r>
       <r>   -19.3933     0.0000    28.0000 </r>
       <r>   -19.2936     0.0000    28.0000 </r>
       <r>   -19.1940     0.0000    28.0000 </r>
       <r>   -19.0943     0.0000    28.0000 </r>
       <r>   -18.9947     0.0000    28.0000 </r>
       <r>   -18.8950     0.0000    28.0000 </r>
       <r>   -18.7954     0.0000    28.0000 </r>
       <r>   -18.6958     0.0000    28.0000 </r>
       <r>   -18.5961     0.0000    28.0000 </r>
       <r>   -18.4965     0.0000    28.0000 </r>
       <r>   -18.3968    -0.0000    28.0000 </r>
       <r>   -18.2972    -0.0000    28.0000 </r>
       <r>   -18.1975    -0.0000    28.0000 </r>
       <r>   -18.0979    -0.0000    28.0000 </r>
       <r>   -17.9982    -0.0000    28.0000 </r>
       <r>   -17.8986    -0.0000    28.0000 </r>
       <r>   -17.7989    -0.0000    28.0000 </r>
       <r>   -17.6993    -0.0000    28.0000 </r>
       <r>   -17.5997    -0.0000    28.0000 </r>
       <r>   -17.5000    -0.0000    28.0000 </r>
       <r>   -17.4004    -0.0006    27.9999 </r>
       <r>   -17.3007    -0.0098    27.9990 </r>
       <r>   -17.2011    -0.0904    27.9900 </r>
       <r>   -17.1014    -0.4357    27.9465 </r>
       <r>   -17.0018    -0.7823    27.8686 </r>
       <r>   -16.9021     1.5009    28.0181 </r>
       <r>   -16.8025     9.1506    28.9300 </r>
       <r>   -16.7028    15.8864    30.5130 </r>
       <r>   -16.6032    12.4323    31.7518 </r>
       <r>   -16.5036     3.7974    32.1302 </r>
       <r>   -16.4039    -0.4689    32.0835 </r>
       <r>   -16.3043    -0.6349    32.0202 </r>
       <r>   -16.2046    -0.1768    32.0026 </r>
       <r>   -16.1050    -0.0241    32.0002 </r>
       <r>   -16.0053    -0.0018    32.0000 </r>
       <r>   -15.9057    -0.0001    32.0000 </r>
       <r>   -15.8060    -0.0000    32.0000 </r>
       <r>   -15.7064    -0.0000    32.0000 </r>
       <r>   -15.6067    -0.0000    32.0000 </r>
       <r>   -15.5071    -0.0000    32.0000 </r>
       <r>   -15.4074    -0.0000    32.0000 </r>
       <r>   -15.3078     0.0000    32.0000 </r>
       <r>   -15.2082     0.0000    32.0000 </r>
       <r>   -15.1085     0.0000    32.0000 </r>
       <r>   -15.0089     0.0000    32.0000 </r>
       <r>   -14.9092     0.0000    32.0000 </r>
       <r>   -14.8096     0.0000    32.0000 </r>
       <r>   -14.7099     0.0000    32.0000 </r>
       <r>   -14.6103     0.0000    32.0000 </r>
       <r>   -14.5106     0.0000    32.0000 </r>
       <r>   -14.4110     0.0000    32.0000 </r>
       <r>   -14.3113     0.0000    32.0000 </r>
       <r>   -14.2117     0.0000    32.0000 </r>
       <r>   -14.1121     0.0000    32.0000 </r>
       <r>   -14.0124     0.0000    32.0000 </r>
       <r>   -13.9128     0.0000    32.0000 </r>
       <r>   -13.8131     0.0000    32.0000 </r>
       <r>   -13.7135     0.0000    32.0000 </r>
       <r>   -13.6138     0.0000    32.0000 </r>
       <r>   -13.5142     0.0000    32.0000 </r>
       <r>   -13.4145     0.0000    32.0000 </r>
       <r>   -13.3149     0.0000    32.0000 </r>
       <r>   -13.2152     0.0000    32.0000 </r>
       <r>   -13.1156     0.0000    32.0000 </r>
       <r>   -13.0160     0.0000    32.0000 </r>
       <r>   -12.9163     0.0000    32.0000 </r>
       <r>   -12.8167     0.0000    32.0000 </r>
       <r>   -12.7170     0.0000    32.0000 </r>
       <r>   -12.6174     0.0000    32.0000 </r>
       <r>   -12.5177     0.0000    32.0000 </r>
       <r>   -12.4181     0.0000    32.0000 </r>
       <r>   -12.3184     0.0000    32.0000 </r>
       <r>   -12.2188     0.0000    32.0000 </r>
       <r>   -12.1191     0.0000    32.0000 </r>
       <r>   -12.0195     0.0000    32.0000 </r>
       <r>   -11.9199     0.0000    32.0000 </r>
       <r>   -11.8202     0.0000    32.0000 </r>
       <r>   -11.7206     0.0000    32.0000 </r>
       <r>   -11.6209     0.0000    32.0000 </r>
       <r>   -11.5213     0.0000    32.0000 </r>
       <r>   -11.4216     0.0000    32.0000 </r>
       <r>   -11.3220     0.0000    32.0000 </r>
       <r>   -11.2223     0.0000    32.0000 </r>
       <r>   -11.1227     0.0000    32.0000 </r>
       <r>   -11.0230     0.0000    32.0000 </r>
       <r>   -10.9234     0.0000    32.0000 </r>
       <r>   -10.8238     0.0000    32.0000 </r>
       <r>   -10.7241     0.0000    32.0000 </r>
       <r>   -10.6245     0.0000    32.0000 </r>
       <r>   -10.5248     0.0000    32.0000 </r>
       <r>   -10.4252     0.0000    32.0000 </r>
       <r>   -10.3255     0.0000    32.0000 </r>
       <r>   -10.2259     0.0000    32.0000 </r>
       <r>   -10.1262     0.0000    32.0000 </r>
       <r>   -10.0266     0.0000    32.0000 </r>
       <r>    -9.9269     0.0000    32.0000 </r>
       <r>    -9.8273     0.0000    32.0000 </r>
       <r>    -9.7276     0.0000    32.0000 </r>
       <r>    -9.6280     0.0000    32.0000 </r>
       <r>    -9.5284     0.0000    32.0000 </r>
       <r>    -9.4287     0.0000    32.0000 </r>
       <r>    -9.3291     0.0000    32.0000 </r>
       <r>    -9.2294     0.0000    32.0000 </r>
       <r>    -9.1298     0.0000    32.0000 </r>
       <r>    -9.0301     0.0000    32.0000 </r>
       <r>    -8.9305     0.0000    32.0000 </r>
       <r>    -8.8308     0.0000    32.0000 </r>
       <r>    -8.7312     0.0000    32.0000 </r>
       <r>    -8.6315     0.0000    32.0000 </r>
       <r>    -8.5319     0.0000    32.0000 </r>
       <r>    -8.4323     0.0000    32.0000 </r>
       <r>    -8.3326     0.0000    32.0000 </r>
       <r>    -8.2330     0.0000    32.0000 </r>
       <r>    -8.1333     0.0000    32.0000 </r>
       <r>    -8.0337     0.0000    32.0000 </r>
       <r>    -7.9340     0.0000    32.0000 </r>
       <r>    -7.8344     0.0000    32.0000 </r>
       <r>    -7.7347    -0.0000    32.0000 </r>
       <r>    -7.6351    -0.0000    32.0000 </r>
       <r>    -7.5354    -0.0000    32.0000 </r>
       <r>    -7.4358    -0.0000    32.0000 </r>
       <r>    -7.3362    -0.0000    32.0000 </r>
       <r>    -7.2365    -0.0000    32.0000 </r>
       <r>    -7.1369    -0.0000    32.0000 </r>
       <r>    -7.0372    -0.0000    32.0000 </r>
       <r>    -6.9376    -0.0000    32.0000 </r>
       <r>    -6.8379    -0.0000    32.0000 </r>
       <r>    -6.7383    -0.0009    31.9999 </r>
       <r>    -6.6386    -0.0127    31.9986 </r>
       <r>    -6.5390    -0.0945    31.9892 </r>
       <r>    -6.4393    -0.3382    31.9555 </r>
       <r>    -6.3397    -0.2305    31.9326 </r>
       <r>    -6.2401     2.0480    32.1366 </r>
       <r>    -6.1404     6.3359    32.7680 </r>
       <r>    -6.0408     7.5586    33.5211 </r>
       <r>    -5.9411     4.8610    34.0055 </r>
       <r>    -5.8415     4.9072    34.4945 </r>
       <r>    -5.7418     7.4354    35.2354 </r>
       <r>    -5.6422     5.6953    35.8029 </r>
       <r>    -5.5425     1.5201    35.9544 </r>
       <r>    -5.4429     2.1966    36.1733 </r>
       <r>    -5.3432     8.9695    37.0670 </r>
       <r>    -5.2436    17.0085    38.7619 </r>
       <r>    -5.1440    21.7224    40.9264 </r>
       <r>    -5.0443    24.4848    43.3662 </r>
       <r>    -4.9447    28.9136    46.2473 </r>
       <r>    -4.8450    30.8457    49.3210 </r>
       <r>    -4.7454    26.6838    51.9799 </r>
       <r>    -4.6457    24.5301    54.4242 </r>
       <r>    -4.5461    29.7314    57.3868 </r>
       <r>    -4.4464    36.7485    61.0486 </r>
       <r>    -4.3468    43.1038    65.3437 </r>
       <r>    -4.2471    46.7707    70.0042 </r>
       <r>    -4.1475    44.2799    74.4165 </r>
       <r>    -4.0479    42.6499    78.6664 </r>
       <r>    -3.9482    43.9586    83.0467 </r>
       <r>    -3.8486    35.7871    86.6127 </r>
       <r>    -3.7489    21.2731    88.7325 </r>
       <r>    -3.6493    14.8129    90.2085 </r>
       <r>    -3.5496    15.5994    91.7629 </r>
       <r>    -3.4500    19.5168    93.7077 </r>
       <r>    -3.3503    23.6858    96.0679 </r>
       <r>    -3.2507    21.9927    98.2594 </r>
       <r>    -3.1510    18.7867   100.1314 </r>
       <r>    -3.0514    23.5942   102.4824 </r>
       <r>    -2.9517    30.1869   105.4904 </r>
       <r>    -2.8521    30.4708   108.5267 </r>
       <r>    -2.7525    30.4564   111.5615 </r>
       <r>    -2.6528    28.5001   114.4015 </r>
       <r>    -2.5532    22.3147   116.6250 </r>
       <r>    -2.4535    21.5972   118.7771 </r>
       <r>    -2.3539    24.3024   121.1987 </r>
       <r>    -2.2542    19.6454   123.1563 </r>
       <r>    -2.1546     8.8854   124.0417 </r>
       <r>    -2.0549     1.0205   124.1434 </r>
       <r>    -1.9553    -1.2575   124.0180 </r>
       <r>    -1.8556    -1.2837   123.8901 </r>
       <r>    -1.7560     0.6379   123.9537 </r>
       <r>    -1.6564     7.6013   124.7111 </r>
       <r>    -1.5567    15.3571   126.2414 </r>
       <r>    -1.4571    13.7077   127.6073 </r>
       <r>    -1.3574     5.0833   128.1138 </r>
       <r>    -1.2578    -0.1573   128.0982 </r>
       <r>    -1.1581    -0.7162   128.0268 </r>
       <r>    -1.0585    -0.2310   128.0038 </r>
       <r>    -0.9588    -0.0349   128.0003 </r>
       <r>    -0.8592    -0.0029   128.0000 </r>
       <r>    -0.7595    -0.0001   128.0000 </r>
       <r>    -0.6599    -0.0000   128.0000 </r>
       <r>    -0.5603    -0.0000   128.0000 </r>
       <r>    -0.4606    -0.0000   128.0000 </r>
       <r>    -0.3610    -0.0000   128.0000 </r>
       <r>    -0.2613    -0.0000   128.0000 </r>
       <r>    -0.1617    -0.0000   128.0000 </r>
       <r>    -0.0620    -0.0000   128.0000 </r>
       <r>     0.0376    -0.0000   128.0000 </r>
       <r>     0.1373    -0.0000   128.0000 </r>
       <r>     0.2369    -0.0003   128.0000 </r>
       <r>     0.3366    -0.0068   127.9993 </r>
       <r>     0.4362    -0.0778   127.9915 </r>
       <r>     0.5358    -0.5051   127.9412 </r>
       <r>     0.6355    -1.6910   127.7727 </r>
       <r>     0.7351    -1.5915   127.6141 </r>
       <r>     0.8348     7.7349   128.3849 </r>
       <r>     0.9344    31.5000   131.5237 </r>
       <r>     1.0341    56.1876   137.1226 </r>
       <r>     1.1337    64.1454   143.5144 </r>
       <r>     1.2334    61.6801   149.6605 </r>
       <r>     1.3330    62.7367   155.9119 </r>
       <r>     1.4327    66.5470   162.5431 </r>
       <r>     1.5323    65.4876   169.0686 </r>
       <r>     1.6319    53.0742   174.3572 </r>
       <r>     1.7316    34.7729   177.8222 </r>
       <r>     1.8312    26.6693   180.4797 </r>
       <r>     1.9309    31.5791   183.6264 </r>
       <r>     2.0305    35.9013   187.2038 </r>
       <r>     2.1302    30.0175   190.1949 </r>
       <r>     2.2298    18.2990   192.0183 </r>
       <r>     2.3295    13.0328   193.3170 </r>
       <r>     2.4291    13.8452   194.6966 </r>
       <r>     2.5288     9.6030   195.6535 </r>
       <r>     2.6284     3.2512   195.9775 </r>
       <r>     2.7280     6.5606   196.6312 </r>
       <r>     2.8277    19.8419   198.6084 </r>
       <r>     2.9273    30.3245   201.6301 </r>
       <r>     3.0270    27.6721   204.3875 </r>
       <r>     3.1266    17.7247   206.1536 </r>
       <r>     3.2263    10.8343   207.2332 </r>
       <r>     3.3259     6.4489   207.8758 </r>
       <r>     3.4256     2.0710   208.0822 </r>
       <r>     3.5252    -0.2595   208.0564 </r>
       <r>     3.6249    -0.4161   208.0149 </r>
       <r>     3.7245    -0.1287   208.0021 </r>
       <r>     3.8242    -0.0191   208.0002 </r>
       <r>     3.9238    -0.0016   208.0000 </r>
       <r>     4.0234    -0.0001   208.0000 </r>
       <r>     4.1231    -0.0000   208.0000 </r>
       <r>     4.2227    -0.0000   208.0000 </r>
       <r>     4.3224    -0.0000   208.0000 </r>
       <r>     4.4220    -0.0000   208.0000 </r>
       <r>     4.5217    -0.0000   208.0000 </r>
       <r>     4.6213     0.0000   208.0000 </r>
       <r>     4.7210     0.0000   208.0000 </r>
       <r>     4.8206     0.0000   208.0000 </r>
       <r>     4.9203     0.0000   208.0000 </r>
       <r>     5.0199     0.0000   208.0000 </r>
       <r>     5.1195     0.0000   208.0000 </r>
       <r>     5.2192     0.0000   208.0000 </r>
      </set>
     </set>
    </array>
   </total>
  </dos>
 </calculation>
 <structure name="finalpos" >
  <crystal>
   <varray name="basis" >
    <v>       5.73591900       0.00000000      -0.79026700 </v>
    <v>       0.00000000       4.78544200       0.00000000 </v>
    <v>       0.05144800       0.00000000      10.88396600 </v>
   </varray>
   <i name="volume">    298.94754291 </i>
   <varray name="rec_basis" >
    <v>       0.17422651       0.00000000      -0.00082356 </v>
    <v>       0.00000000       0.20896711       0.00000000 </v>
    <v>       0.01265030       0.00000000       0.09181848 </v>
   </varray>
  </crystal>
  <varray name="positions" >
   <v>       0.24699400       0.25400800       0.74280900 </v>
   <v>       0.24699400       0.75149400       0.24623300 </v>
   <v>       0.51485700       0.23976700       0.49879200 </v>
   <v>       0.51287400       0.75502400       0.99879200 </v>
   <v>       0.75373900       0.23127500       0.26486200 </v>
   <v>       0.75373900       0.76872500       0.76486200 </v>
   <v>       0.99045900       0.24137200       0.99652900 </v>
   <v>       0.99045900       0.75862800       0.49652900 </v>
   <v>       0.77857200       0.05847800       0.41725200 </v>
   <v>       0.77857200       0.93733800       0.91725200 </v>
   <v>       0.01370000       0.05755600       0.18278600 </v>
   <v>       0.01370000       0.94244400       0.68278600 </v>
   <v>       0.22224900       0.44944100       0.57080400 </v>
   <v>       0.22224900       0.55055900       0.07080400 </v>
   <v>       0.27923300       0.05174700       0.92203700 </v>
   <v>       0.27923300       0.94825300       0.42203700 </v>
   <v>       0.48187500       0.45353000       0.31584000 </v>
   <v>       0.48187500       0.54647000       0.81584000 </v>
   <v>       0.52253600       0.03560000       0.67416600 </v>
   <v>       0.52253600       0.96440000       0.17416600 </v>
   <v>       0.72235300       0.44302000       0.09109400 </v>
   <v>       0.71530200       0.55698000       0.59109400 </v>
   <v>       0.97343300       0.45650500       0.81960400 </v>
   <v>       0.97343300       0.54349500       0.31960400 </v>
  </varray>
 </structure>
</modeling>
