<?xml version="1.0" encoding="ISO-8859-1"?>
<modeling>
 <generator>
  <i name="program" type="string">vasp </i>
  <i name="version" type="string">5.3.5  </i>
  <i name="subversion" type="string">31Mar14 (build Aug 29 2014 19:41:47) complex                          parallel </i>
  <i name="platform" type="string">LinuxIFC </i>
  <i name="date" type="string">2019 04 11 </i>
  <i name="time" type="string">14:45:26 </i>
 </generator>
 <incar>
  <i type="string" name="SYSTEM"> Fe4OF8_var_23</i>
  <i type="int" name="ISTART">     0</i>
  <i type="string" name="PREC">normal</i>
  <i type="string" name="ALGO"> VeryFast</i>
  <i type="int" name="ISPIN">     1</i>
  <i type="int" name="ICHARG">     2</i>
  <i type="int" name="NELM">   300</i>
  <i type="int" name="ISYM">     0</i>
  <i type="logical" name="LWAVE"> F  </i>
  <i type="int" name="NELM">   300</i>
 </incar>
 <kpoints>
  <generation param="Gamma">
   <v type="int" name="divisions">       1        1        1 </v>
   <v name="usershift">      0.00000000       0.00000000       0.00000000 </v>
   <v name="genvec1">      1.00000000       0.00000000       0.00000000 </v>
   <v name="genvec2">      0.00000000       1.00000000       0.00000000 </v>
   <v name="genvec3">      0.00000000       0.00000000       1.00000000 </v>
   <v name="shift">      0.00000000       0.00000000       0.00000000 </v>
  </generation>
  <varray name="kpointlist" >
   <v>       0.00000000       0.00000000       0.00000000 </v>
  </varray>
  <varray name="weights" >
   <v>       1.00000000 </v>
  </varray>
 </kpoints>
 <parameters>
  <separator name="general" >
   <i type="string" name="SYSTEM">Fe4OF8_var_23</i>
   <i type="logical" name="LCOMPAT"> F  </i>
  </separator>
  <separator name="electronic" >
   <i type="string" name="PREC">normal</i>
   <i name="ENMAX">    400.00000000</i>
   <i name="ENAUG">    613.61400000</i>
   <i name="EDIFF">      0.00010000</i>
   <i type="int" name="IALGO">    48</i>
   <i type="int" name="IWAVPR">    10</i>
   <i type="int" name="NBANDS">   228</i>
   <i name="NELECT">    376.00000000</i>
   <i type="int" name="TURBO">     0</i>
   <i type="int" name="IRESTART">     0</i>
   <i type="int" name="NREBOOT">     0</i>
   <i type="int" name="NMIN">     0</i>
   <i name="EREF">      0.00000000</i>
   <separator name="electronic smearing" >
    <i type="int" name="ISMEAR">     1</i>
    <i name="SIGMA">      0.20000000</i>
    <i name="KSPACING">      0.50000000</i>
    <i type="logical" name="KGAMMA"> T  </i>
   </separator>
   <separator name="electronic projectors" >
    <i type="logical" name="LREAL"> F  </i>
    <v name="ROPT">      0.00000000      0.00000000      0.00000000</v>
    <i type="int" name="LMAXPAW">  -100</i>
    <i type="int" name="LMAXMIX">     2</i>
    <i type="logical" name="NLSPLINE"> F  </i>
   </separator>
   <separator name="electronic startup" >
    <i type="int" name="ISTART">     0</i>
    <i type="int" name="ICHARG">     2</i>
    <i type="int" name="INIWAV">     1</i>
   </separator>
   <separator name="electronic spin" >
    <i type="int" name="ISPIN">     1</i>
    <i type="logical" name="LNONCOLLINEAR"> F  </i>
    <v name="MAGMOM">      1.00000000      1.00000000      1.00000000      1.00000000      1.00000000      1.00000000      1.00000000      1.00000000      1.00000000      1.00000000      1.00000000      1.00000000      1.00000000      1.00000000      1.00000000      1.00000000      1.00000000      1.00000000      1.00000000      1.00000000
      1.00000000      1.00000000      1.00000000      1.00000000      1.00000000      1.00000000      1.00000000      1.00000000      1.00000000      1.00000000      1.00000000      1.00000000      1.00000000      1.00000000      1.00000000      1.00000000      1.00000000      1.00000000      1.00000000      1.00000000
      1.00000000      1.00000000      1.00000000      1.00000000      1.00000000      1.00000000      1.00000000      1.00000000      1.00000000      1.00000000      1.00000000      1.00000000</v>
    <i name="NUPDOWN">     -1.00000000</i>
    <i type="logical" name="LSORBIT"> F  </i>
    <v name="SAXIS">      0.00000000      0.00000000      1.00000000</v>
    <i type="logical" name="LSPIRAL"> F  </i>
    <v name="QSPIRAL">      0.00000000      0.00000000      0.00000000</v>
    <i type="logical" name="LZEROZ"> F  </i>
   </separator>
   <separator name="electronic exchange-correlation" >
    <i type="logical" name="LASPH"> F  </i>
    <i type="logical" name="LMETAGGA"> F  </i>
   </separator>
   <separator name="electronic convergence" >
    <i type="int" name="NELM">   300</i>
    <i type="int" name="NELMDL">   -12</i>
    <i type="int" name="NELMIN">     2</i>
    <i name="ENINI">    400.00000000</i>
    <separator name="electronic convergence detail" >
     <i type="logical" name="LDIAG"> T  </i>
     <i type="logical" name="LSUBROT"> F  </i>
     <i name="WEIMIN">      0.00000000</i>
     <i name="EBREAK">      0.00000011</i>
     <i name="DEPER">      0.30000000</i>
     <i type="int" name="NRMM">     4</i>
     <i name="TIME">      0.40000000</i>
    </separator>
   </separator>
   <separator name="electronic mixer" >
    <i name="AMIX">      0.40000000</i>
    <i name="BMIX">      1.00000000</i>
    <i name="AMIN">      0.10000000</i>
    <i name="AMIX_MAG">      1.60000000</i>
    <i name="BMIX_MAG">      1.00000000</i>
    <separator name="electronic mixer details" >
     <i type="int" name="IMIX">     4</i>
     <i type="int" name="MAXMIX">   -45</i>
     <i name="WC">    100.00000000</i>
     <i type="int" name="INIMIX">     1</i>
     <i type="int" name="MIXPRE">     1</i>
     <i type="int" name="MREMOVE">     5</i>
    </separator>
   </separator>
   <separator name="electronic dipolcorrection" >
    <i type="logical" name="LDIPOL"> F  </i>
    <i type="logical" name="LMONO"> F  </i>
    <i type="int" name="IDIPOL">     0</i>
    <i name="EPSILON">      1.00000000</i>
    <v name="DIPOL">   -100.00000000   -100.00000000   -100.00000000</v>
    <i name="EFIELD">      0.00000000</i>
   </separator>
  </separator>
  <separator name="grids" >
   <i type="int" name="NGX">    48</i>
   <i type="int" name="NGY">    28</i>
   <i type="int" name="NGZ">    80</i>
   <i type="int" name="NGXF">    96</i>
   <i type="int" name="NGYF">    56</i>
   <i type="int" name="NGZF">   160</i>
   <i type="logical" name="ADDGRID"> F  </i>
  </separator>
  <separator name="ionic" >
   <i type="int" name="NSW">     0</i>
   <i type="int" name="IBRION">    -1</i>
   <i type="int" name="ISIF">     2</i>
   <i name="PSTRESS">      0.00000000</i>
   <i name="EDIFFG">      0.00100000</i>
   <i type="int" name="NFREE">     0</i>
   <i name="POTIM">      0.50000000</i>
   <i name="SMASS">     -3.00000000</i>
   <i name="SCALEE">      1.00000000</i>
  </separator>
  <separator name="ionic md" >
   <i name="TEBEG">      0.00010000</i>
   <i name="TEEND">      0.00010000</i>
   <i type="int" name="NBLOCK">     1</i>
   <i type="int" name="KBLOCK">     1</i>
   <i type="int" name="NPACO">   256</i>
   <i name="APACO">     16.00000000</i>
  </separator>
  <separator name="symmetry" >
   <i type="int" name="ISYM">     0</i>
   <i name="SYMPREC">      0.00001000</i>
  </separator>
  <separator name="dos" >
   <i type="logical" name="LORBIT"> F  </i>
   <v name="RWIGS">     -1.00000000     -1.00000000     -1.00000000</v>
   <i type="int" name="NEDOS">   301</i>
   <i name="EMIN">     10.00000000</i>
   <i name="EMAX">    -10.00000000</i>
   <i name="EFERMI">      0.00000000</i>
  </separator>
  <separator name="writing" >
   <i type="int" name="NWRITE">     2</i>
   <i type="logical" name="LWAVE"> F  </i>
   <i type="logical" name="LCHARG"> T  </i>
   <i type="logical" name="LPARD"> F  </i>
   <i type="logical" name="LVTOT"> F  </i>
   <i type="logical" name="LVHAR"> F  </i>
   <i type="logical" name="LELF"> F  </i>
   <i type="logical" name="LOPTICS"> F  </i>
   <v name="STM">      0.00000000      0.00000000      0.00000000      0.00000000      0.00000000      0.00000000      0.00000000</v>
  </separator>
  <separator name="performance" >
   <i type="int" name="NPAR">     4</i>
   <i type="int" name="NSIM">     4</i>
   <i type="int" name="NBLK">    -1</i>
   <i type="logical" name="LPLANE"> T  </i>
   <i type="logical" name="LSCALAPACK"> T  </i>
   <i type="logical" name="LSCAAWARE"> F  </i>
   <i type="logical" name="LSCALU"> F  </i>
   <i type="logical" name="LASYNC"> F  </i>
   <i type="logical" name="LORBITALREAL"> F  </i>
  </separator>
  <separator name="miscellaneous" >
   <i type="int" name="IDIOT">     3</i>
   <i type="logical" name="LMUSIC"> F  </i>
   <v name="POMASS">     55.84700000     16.00000000     18.99800000</v>
   <v name="DARWINR">      0.00000000      0.00000000      0.00000000</v>
   <v name="DARWINV">      1.00000000      1.00000000      1.00000000</v>
   <i type="logical" name="LCORR"> T  </i>
  </separator>
  <i type="logical" name="GGA_COMPAT"> T  </i>
  <i type="logical" name="LBERRY"> F  </i>
  <i type="int" name="ICORELEVEL">     0</i>
  <i type="logical" name="LDAU"> F  </i>
  <i type="int" name="I_CONSTRAINED_M">     0</i>
  <separator name="electronic exchange-correlation" >
   <i type="string" name="GGA">--</i>
   <i type="int" name="VOSKOWN">     0</i>
   <i type="logical" name="LHFCALC"> F  </i>
   <i type="string" name="PRECFOCK"></i>
   <i type="logical" name="LSYMGRAD"> F  </i>
   <i type="logical" name="LHFONE"> F  </i>
   <i type="logical" name="LRHFCALC"> F  </i>
   <i type="logical" name="LTHOMAS"> F  </i>
   <i type="logical" name="LMODELHF"> F  </i>
   <i name="ENCUT4O">     -1.00000000</i>
   <i type="int" name="EXXOEP">     0</i>
   <i type="int" name="FOURORBIT">     0</i>
   <i name="AEXX">      0.00000000</i>
   <i name="HFALPHA">      0.00000000</i>
   <i name="MCALPHA">      0.00000000</i>
   <i name="ALDAX">      1.00000000</i>
   <i name="AGGAX">      1.00000000</i>
   <i name="ALDAC">      1.00000000</i>
   <i name="AGGAC">      1.00000000</i>
   <i type="int" name="NKREDX">     1</i>
   <i type="int" name="NKREDY">     1</i>
   <i type="int" name="NKREDZ">     1</i>
   <i type="logical" name="SHIFTRED"> F  </i>
   <i type="logical" name="ODDONLY"> F  </i>
   <i type="logical" name="EVENONLY"> F  </i>
   <i type="int" name="LMAXFOCK">     0</i>
   <i type="int" name="NMAXFOCKAE">     0</i>
   <i type="logical" name="LFOCKAEDFT"> F  </i>
   <i name="HFSCREEN">      0.00000000</i>
   <i name="HFSCREENC">      0.00000000</i>
   <i type="int" name="NBANDSGWLOW">     0</i>
  </separator>
  <separator name="vdW DFT" >
   <i type="logical" name="LUSE_VDW"> F  </i>
   <i name="Zab_VDW">     -0.84910000</i>
   <i name="PARAM1">      0.12340000</i>
   <i name="PARAM2">      1.00000000</i>
   <i name="PARAM3">      0.00000000</i>
  </separator>
  <separator name="model GW" >
   <i type="int" name="MODEL_GW">     0</i>
   <i name="MODEL_EPS0">      8.63201149</i>
   <i name="MODEL_ALPHA">      1.00000000</i>
  </separator>
  <separator name="linear response parameters" >
   <i type="logical" name="LEPSILON"> F  </i>
   <i type="logical" name="LRPA"> F  </i>
   <i type="logical" name="LNABLA"> F  </i>
   <i type="logical" name="LVEL"> F  </i>
   <i type="int" name="KINTER">     0</i>
   <i name="CSHIFT">      0.10000000</i>
   <i name="OMEGAMAX">     -1.00000000</i>
   <i name="DEG_THRESHOLD">      0.00200000</i>
  </separator>
  <separator name="orbital magnetization" >
   <i type="logical" name="NUCIND"> F  </i>
   <v name="MAGPOS">      0.00000000      0.00000000      0.00000000</v>
   <i type="logical" name="LNICSALL"> T  </i>
   <i type="logical" name="ORBITALMAG"> F  </i>
   <i type="logical" name="LMAGBLOCH"> F  </i>
   <i type="logical" name="LCHIMAG"> F  </i>
   <i type="logical" name="LGAUGE"> T  </i>
   <i type="int" name="MAGATOM">     0</i>
   <v name="MAGDIPOL">      0.00000000      0.00000000      0.00000000</v>
   <v name="AVECCONST">      0.00000000      0.00000000      0.00000000</v>
  </separator>
  <separator name="response functions" >
   <i type="logical" name="LADDER"> F  </i>
   <i type="logical" name="LFXC"> F  </i>
   <i type="logical" name="LHARTREE"> T  </i>
   <i type="int" name="IBSE">     0</i>
   <i type="logical" name="LTCTE"> F  </i>
   <i type="logical" name="LTETE"> F  </i>
   <i type="logical" name="LTRIPLET"> F  </i>
   <i type="logical" name="LFXCEPS"> F  </i>
   <i type="logical" name="LFXHEG"> F  </i>
   <i type="logical" name="L2ORDER"> F  </i>
   <i type="logical" name="LUSEW"> F  </i>
   <i name="ENCUTGW">     -2.00000000</i>
   <i name="ENCUTGWSOFT">     -2.00000000</i>
   <i name="ENCUTLF">     -1.00000000</i>
   <i type="int" name="LMAXMP2">    -1</i>
   <i name="SCISSOR">      0.00000000</i>
   <i type="int" name="NOMEGA">     0</i>
   <i type="int" name="NOMEGAR">     0</i>
   <i type="int" name="NBANDSGW">    -1</i>
   <i type="int" name="NBANDSO">    -1</i>
   <i type="int" name="NBANDSV">    -1</i>
   <i type="int" name="NELM">   300</i>
   <i type="int" name="DIM">     3</i>
   <i type="int" name="ANTIRES">     0</i>
   <i name="OMEGAMAX">    -30.00000000</i>
   <i name="OMEGAMIN">    -30.00000000</i>
   <i name="OMEGATL">   -200.00000000</i>
   <i type="int" name="OMEGAGRID">     0</i>
   <i name="CSHIFT">     -0.10000000</i>
   <i type="logical" name="SELFENERGY"> F  </i>
   <i type="logical" name="LSPECTRAL"> F  </i>
   <i type="logical" name="ODDONLYGW"> F  </i>
   <i type="logical" name="EVENONLYGW"> F  </i>
   <i type="int" name="NKREDLFX">     1</i>
   <i type="int" name="NKREDLFY">     1</i>
   <i type="int" name="NKREDLFZ">     1</i>
   <i type="int" name="MAXMEM">  1800</i>
   <i type="int" name="TELESCOPE">     0</i>
   <i type="int" name="TAUPAR">     1</i>
  </separator>
  <separator name="External order field" >
   <i name="OFIELD_KAPPA">      0.00000000</i>
   <v name="OFIELD_K">      0.00000000      0.00000000      0.00000000</v>
   <i name="OFIELD_Q6_NEAR">      0.00000000</i>
   <i name="OFIELD_Q6_FAR">      0.00000000</i>
   <i name="OFIELD_A">      0.00000000</i>
  </separator>
 </parameters>
 <atominfo>
  <atoms>      52 </atoms>
  <types>       3 </types>
  <array name="atoms" >
   <dimension dim="1">ion</dimension>
   <field type="string">element</field>
   <field type="int">atomtype</field>
   <set>
    <rc><c>Fe</c><c>   1</c></rc>
    <rc><c>Fe</c><c>   1</c></rc>
    <rc><c>Fe</c><c>   1</c></rc>
    <rc><c>Fe</c><c>   1</c></rc>
    <rc><c>Fe</c><c>   1</c></rc>
    <rc><c>Fe</c><c>   1</c></rc>
    <rc><c>Fe</c><c>   1</c></rc>
    <rc><c>Fe</c><c>   1</c></rc>
    <rc><c>Fe</c><c>   1</c></rc>
    <rc><c>Fe</c><c>   1</c></rc>
    <rc><c>Fe</c><c>   1</c></rc>
    <rc><c>Fe</c><c>   1</c></rc>
    <rc><c>Fe</c><c>   1</c></rc>
    <rc><c>Fe</c><c>   1</c></rc>
    <rc><c>Fe</c><c>   1</c></rc>
    <rc><c>Fe</c><c>   1</c></rc>
    <rc><c>O </c><c>   2</c></rc>
    <rc><c>O </c><c>   2</c></rc>
    <rc><c>O </c><c>   2</c></rc>
    <rc><c>O </c><c>   2</c></rc>
    <rc><c>F </c><c>   3</c></rc>
    <rc><c>F </c><c>   3</c></rc>
    <rc><c>F </c><c>   3</c></rc>
    <rc><c>F </c><c>   3</c></rc>
    <rc><c>F </c><c>   3</c></rc>
    <rc><c>F </c><c>   3</c></rc>
    <rc><c>F </c><c>   3</c></rc>
    <rc><c>F </c><c>   3</c></rc>
    <rc><c>F </c><c>   3</c></rc>
    <rc><c>F </c><c>   3</c></rc>
    <rc><c>F </c><c>   3</c></rc>
    <rc><c>F </c><c>   3</c></rc>
    <rc><c>F </c><c>   3</c></rc>
    <rc><c>F </c><c>   3</c></rc>
    <rc><c>F </c><c>   3</c></rc>
    <rc><c>F </c><c>   3</c></rc>
    <rc><c>F </c><c>   3</c></rc>
    <rc><c>F </c><c>   3</c></rc>
    <rc><c>F </c><c>   3</c></rc>
    <rc><c>F </c><c>   3</c></rc>
    <rc><c>F </c><c>   3</c></rc>
    <rc><c>F </c><c>   3</c></rc>
    <rc><c>F </c><c>   3</c></rc>
    <rc><c>F </c><c>   3</c></rc>
    <rc><c>F </c><c>   3</c></rc>
    <rc><c>F </c><c>   3</c></rc>
    <rc><c>F </c><c>   3</c></rc>
    <rc><c>F </c><c>   3</c></rc>
    <rc><c>F </c><c>   3</c></rc>
    <rc><c>F </c><c>   3</c></rc>
    <rc><c>F </c><c>   3</c></rc>
    <rc><c>F </c><c>   3</c></rc>
   </set>
  </array>
  <array name="atomtypes" >
   <dimension dim="1">type</dimension>
   <field type="int">atomspertype</field>
   <field type="string">element</field>
   <field>mass</field>
   <field>valence</field>
   <field type="string">pseudopotential</field>
   <set>
    <rc><c>  16</c><c>Fe</c><c>     55.84700000</c><c>      8.00000000</c><c>  PAW_PBE Fe 06Sep2000                  </c></rc>
    <rc><c>   4</c><c>O </c><c>     16.00000000</c><c>      6.00000000</c><c>  PAW_PBE O 08Apr2002                   </c></rc>
    <rc><c>  32</c><c>F </c><c>     18.99800000</c><c>      7.00000000</c><c>  PAW_PBE F 08Apr2002                   </c></rc>
   </set>
  </array>
 </atominfo>
 <structure name="initialpos" >
  <crystal>
   <varray name="basis" >
    <v>       9.33334200       0.00000000      -0.08412900 </v>
    <v>       0.00000000       5.35946700       0.00000000 </v>
    <v>       0.00000000       0.00000000      14.95565100 </v>
   </varray>
   <i name="volume">    748.10766265 </i>
   <varray name="rec_basis" >
    <v>       0.10714276       0.00000000       0.00000000 </v>
    <v>       0.00000000       0.18658572       0.00000000 </v>
    <v>       0.00060270       0.00000000       0.06686436 </v>
   </varray>
  </crystal>
  <varray name="positions" >
   <v>       0.16411200       0.48397600       0.17995900 </v>
   <v>       0.16411200       0.51602400       0.67995900 </v>
   <v>       0.66411200       0.98397600       0.17995900 </v>
   <v>       0.66411200       0.01602400       0.67995900 </v>
   <v>       0.17533200       0.47285200       0.97303200 </v>
   <v>       0.17533200       0.52714800       0.47349600 </v>
   <v>       0.67430600       0.97285200       0.97316500 </v>
   <v>       0.67533200       0.02714800       0.47303200 </v>
   <v>       0.33574700       0.02941400       0.82240100 </v>
   <v>       0.33162900       0.97058600       0.32240100 </v>
   <v>       0.83162900       0.52941400       0.82240100 </v>
   <v>       0.83162900       0.47058600       0.31392600 </v>
   <v>       0.33361900       0.00432000       0.51711500 </v>
   <v>       0.33361900       0.99568000       0.01711500 </v>
   <v>       0.83361900       0.50432000       0.51711500 </v>
   <v>       0.83364800       0.49568000       0.01711500 </v>
   <v>       0.30926400       0.26740800       0.92544800 </v>
   <v>       0.30926400       0.73259200       0.42544800 </v>
   <v>       0.80926400       0.76740800       0.92544800 </v>
   <v>       0.80926400       0.23259200       0.42544800 </v>
   <v>       0.00386100       0.36884200       0.24394900 </v>
   <v>       0.99843900       0.63115800       0.74394900 </v>
   <v>       0.51323000       0.86884200       0.24394900 </v>
   <v>       0.50386100       0.13115800       0.74394900 </v>
   <v>       0.02591400       0.39537700       0.57915900 </v>
   <v>       0.02975900       0.60462300       0.07915900 </v>
   <v>       0.52591400       0.89537700       0.57915900 </v>
   <v>       0.52591400       0.10462300       0.07915900 </v>
   <v>       0.17611800       0.21417000       0.08350500 </v>
   <v>       0.17611800       0.78583000       0.58350500 </v>
   <v>       0.67893700       0.71417000       0.08350500 </v>
   <v>       0.67611800       0.28748100       0.58350500 </v>
   <v>       0.18147400       0.20344500       0.73945400 </v>
   <v>       0.19136500       0.79655500       0.23945400 </v>
   <v>       0.68147400       0.70344500       0.73945400 </v>
   <v>       0.68147400       0.29655500       0.23945400 </v>
   <v>       0.18900300       0.20186000       0.42366300 </v>
   <v>       0.18742900       0.79814000       0.92366300 </v>
   <v>       0.68900300       0.70186000       0.42366300 </v>
   <v>       0.68900300       0.29814000       0.92877400 </v>
   <v>       0.29347700       0.34686800       0.57827500 </v>
   <v>       0.29347700       0.65313200       0.07827500 </v>
   <v>       0.79347700       0.84686800       0.57827500 </v>
   <v>       0.79347700       0.15313200       0.07491300 </v>
   <v>       0.30310600       0.30561100       0.24801900 </v>
   <v>       0.30310600       0.69438900       0.74801900 </v>
   <v>       0.80310600       0.80561100       0.24575400 </v>
   <v>       0.80310600       0.19438900       0.74801900 </v>
   <v>       0.49071400       0.13464800       0.42295500 </v>
   <v>       0.49071400       0.86535200       0.92766300 </v>
   <v>       0.99071400       0.63464800       0.42295500 </v>
   <v>       0.99071400       0.36535200       0.92880800 </v>
  </varray>
 </structure>
 <calculation>
  <scstep>
   <time name="diag">    0.74    1.25</time>
   <time name="diis">    1.13    1.55</time>
   <time name="orth">    0.28    0.40</time>
   <time name="total">    2.44    3.69</time>
   <energy>
    <i name="alphaZ">   1144.82473452 </i>
    <i name="ewald"> -19710.53482566 </i>
    <i name="hartreedc"> -12195.09344537 </i>
    <i name="XCdc">   1336.91025034 </i>
    <i name="pawpsdc">  27518.38149996 </i>
    <i name="pawaedc"> -27812.06485035 </i>
    <i name="eentropy">      0.08819719 </i>
    <i name="bandstr">   2164.47858460 </i>
    <i name="atom">  32340.34786160 </i>
    <i name="e_fr_energy">   4787.33800682 </i>
    <i name="e_wo_entrp">   4787.24980963 </i>
    <i name="e_0_energy">   4787.30860776 </i>
   </energy>
  </scstep>
  <scstep>
   <time name="diag">    0.75    1.18</time>
   <time name="diis">    1.22    1.61</time>
   <time name="orth">    0.22    0.31</time>
   <time name="total">    2.19    3.10</time>
   <energy>
    <i name="e_fr_energy">   1589.05701570 </i>
    <i name="e_wo_entrp">   1589.05885369 </i>
    <i name="e_0_energy">   1589.05762836 </i>
   </energy>
  </scstep>
  <scstep>
   <time name="diag">    0.42    0.71</time>
   <time name="diis">    1.13    1.63</time>
   <time name="orth">    0.12    0.17</time>
   <time name="total">    1.67    2.51</time>
   <energy>
    <i name="e_fr_energy">    552.88415253 </i>
    <i name="e_wo_entrp">    552.66441124 </i>
    <i name="e_0_energy">    552.81090543 </i>
   </energy>
  </scstep>
  <scstep>
   <time name="diag">    0.35    0.46</time>
   <time name="diis">    1.30    2.03</time>
   <time name="orth">    0.20    0.28</time>
   <time name="total">    1.85    2.77</time>
   <energy>
    <i name="e_fr_energy">    123.31355734 </i>
    <i name="e_wo_entrp">    123.29304936 </i>
    <i name="e_0_energy">    123.30672135 </i>
   </energy>
  </scstep>
  <scstep>
   <time name="diag">    0.47    0.81</time>
   <time name="diis">    1.22    1.68</time>
   <time name="orth">    0.23    0.34</time>
   <time name="total">    1.93    2.84</time>
   <energy>
    <i name="e_fr_energy">   -129.62595372 </i>
    <i name="e_wo_entrp">   -129.61074040 </i>
    <i name="e_0_energy">   -129.62088262 </i>
   </energy>
  </scstep>
  <scstep>
   <time name="diag">    0.46    0.73</time>
   <time name="diis">    1.04    1.38</time>
   <time name="orth">    0.09    0.14</time>
   <time name="total">    1.59    2.24</time>
   <energy>
    <i name="e_fr_energy">   -242.68051219 </i>
    <i name="e_wo_entrp">   -242.72058184 </i>
    <i name="e_0_energy">   -242.69386874 </i>
   </energy>
  </scstep>
  <scstep>
   <time name="diag">    0.39    0.61</time>
   <time name="diis">    1.00    1.26</time>
   <time name="orth">    0.08    0.13</time>
   <time name="total">    1.47    1.99</time>
   <energy>
    <i name="e_fr_energy">   -297.96982609 </i>
    <i name="e_wo_entrp">   -298.07043284 </i>
    <i name="e_0_energy">   -298.00336167 </i>
   </energy>
  </scstep>
  <scstep>
   <time name="diag">    0.44    0.54</time>
   <time name="diis">    1.00    1.37</time>
   <time name="orth">    0.09    0.14</time>
   <time name="total">    1.53    2.05</time>
   <energy>
    <i name="e_fr_energy">   -318.35996336 </i>
    <i name="e_wo_entrp">   -318.46447652 </i>
    <i name="e_0_energy">   -318.39480108 </i>
   </energy>
  </scstep>
  <scstep>
   <time name="diag">    0.30    0.32</time>
   <time name="diis">    3.33    4.41</time>
   <time name="orth">    0.11    0.11</time>
   <time name="total">    3.74    4.84</time>
   <energy>
    <i name="e_fr_energy">   -336.84716294 </i>
    <i name="e_wo_entrp">   -336.94755816 </i>
    <i name="e_0_energy">   -336.88062801 </i>
   </energy>
  </scstep>
  <scstep>
   <time name="diag">    0.35    0.43</time>
   <time name="diis">    3.27    4.19</time>
   <time name="orth">    0.09    0.12</time>
   <time name="total">    3.72    4.75</time>
   <energy>
    <i name="e_fr_energy">   -337.21520256 </i>
    <i name="e_wo_entrp">   -337.28987323 </i>
    <i name="e_0_energy">   -337.24009279 </i>
   </energy>
  </scstep>
  <scstep>
   <time name="diag">    0.39    0.50</time>
   <time name="diis">    3.19    3.97</time>
   <time name="orth">    0.17    0.18</time>
   <time name="total">    3.75    4.65</time>
   <energy>
    <i name="e_fr_energy">   -337.46913702 </i>
    <i name="e_wo_entrp">   -337.52991259 </i>
    <i name="e_0_energy">   -337.48939554 </i>
   </energy>
  </scstep>
  <scstep>
   <time name="diag">    0.34    0.43</time>
   <time name="diis">    2.59    3.35</time>
   <time name="orth">    0.07    0.11</time>
   <time name="total">    3.10    4.04</time>
   <energy>
    <i name="e_fr_energy">   -337.56135424 </i>
    <i name="e_wo_entrp">   -337.61426859 </i>
    <i name="e_0_energy">   -337.57899235 </i>
   </energy>
  </scstep>
  <scstep>
   <time name="diag">    0.59    0.67</time>
   <time name="diis">    2.46    3.10</time>
   <time name="orth">    0.12    0.19</time>
   <time name="total">    3.51    4.39</time>
   <energy>
    <i name="e_fr_energy">   -328.22771335 </i>
    <i name="e_wo_entrp">   -328.07488454 </i>
    <i name="e_0_energy">   -328.17677041 </i>
   </energy>
  </scstep>
  <scstep>
   <time name="diag">    0.35    0.39</time>
   <time name="diis">    2.30    3.17</time>
   <time name="orth">    0.16    0.17</time>
   <time name="total">    3.24    4.31</time>
   <energy>
    <i name="e_fr_energy">   -392.26589089 </i>
    <i name="e_wo_entrp">   -392.05140938 </i>
    <i name="e_0_energy">   -392.19439705 </i>
   </energy>
  </scstep>
  <scstep>
   <time name="diag">    0.36    0.44</time>
   <time name="diis">    2.24    2.96</time>
   <time name="orth">    0.09    0.13</time>
   <time name="total">    2.99    3.93</time>
   <energy>
    <i name="e_fr_energy">   -311.47746572 </i>
    <i name="e_wo_entrp">   -311.46492964 </i>
    <i name="e_0_energy">   -311.47328702 </i>
   </energy>
  </scstep>
  <scstep>
   <time name="diag">    0.34    0.43</time>
   <time name="diis">    2.21    2.86</time>
   <time name="orth">    0.09    0.11</time>
   <time name="total">    2.94    3.84</time>
   <energy>
    <i name="e_fr_energy">   -312.17986290 </i>
    <i name="e_wo_entrp">   -312.20381512 </i>
    <i name="e_0_energy">   -312.18784697 </i>
   </energy>
  </scstep>
  <scstep>
   <time name="diag">    0.47    0.56</time>
   <time name="diis">    2.12    2.87</time>
   <time name="orth">    0.17    0.25</time>
   <time name="total">    3.07    4.06</time>
   <energy>
    <i name="e_fr_energy">   -407.47729109 </i>
    <i name="e_wo_entrp">   -407.46888303 </i>
    <i name="e_0_energy">   -407.47448840 </i>
   </energy>
  </scstep>
  <scstep>
   <time name="diag">    0.43    0.51</time>
   <time name="diis">    2.10    2.93</time>
   <time name="orth">    0.14    0.18</time>
   <time name="total">    3.05    4.14</time>
   <energy>
    <i name="e_fr_energy">   -384.23294797 </i>
    <i name="e_wo_entrp">   -384.18166713 </i>
    <i name="e_0_energy">   -384.21585436 </i>
   </energy>
  </scstep>
  <scstep>
   <time name="diag">    0.61    0.74</time>
   <time name="diis">    2.26    2.89</time>
   <time name="orth">    0.13    0.15</time>
   <time name="total">    3.40    4.33</time>
   <energy>
    <i name="e_fr_energy">   -329.37132600 </i>
    <i name="e_wo_entrp">   -329.52750435 </i>
    <i name="e_0_energy">   -329.42338545 </i>
   </energy>
  </scstep>
  <scstep>
   <time name="diag">    0.37    0.52</time>
   <time name="diis">    2.10    2.87</time>
   <time name="orth">    0.15    0.23</time>
   <time name="total">    2.95    4.05</time>
   <energy>
    <i name="e_fr_energy">   -334.23680555 </i>
    <i name="e_wo_entrp">   -334.22433490 </i>
    <i name="e_0_energy">   -334.23264867 </i>
   </energy>
  </scstep>
  <scstep>
   <time name="diag">    0.45    0.55</time>
   <time name="diis">    3.04    3.19</time>
   <time name="orth">    0.10    0.11</time>
   <time name="total">    3.98    4.27</time>
   <energy>
    <i name="e_fr_energy">   -324.26708381 </i>
    <i name="e_wo_entrp">   -324.26114211 </i>
    <i name="e_0_energy">   -324.26510325 </i>
   </energy>
  </scstep>
  <scstep>
   <time name="diag">    0.40    0.40</time>
   <time name="diis">    2.87    2.87</time>
   <time name="orth">    0.14    0.14</time>
   <time name="total">    3.71    3.71</time>
   <energy>
    <i name="e_fr_energy">   -318.59233809 </i>
    <i name="e_wo_entrp">   -318.48387100 </i>
    <i name="e_0_energy">   -318.55618239 </i>
   </energy>
  </scstep>
  <scstep>
   <time name="diag">    0.45    0.45</time>
   <time name="diis">    2.51    3.21</time>
   <time name="orth">    0.18    0.25</time>
   <time name="total">    3.43    4.25</time>
   <energy>
    <i name="e_fr_energy">   -318.98488335 </i>
    <i name="e_wo_entrp">   -319.07909965 </i>
    <i name="e_0_energy">   -319.01628879 </i>
   </energy>
  </scstep>
  <scstep>
   <time name="diag">    0.39    0.49</time>
   <time name="diis">    2.51    2.99</time>
   <time name="orth">    0.22    0.28</time>
   <time name="total">    3.47    4.20</time>
   <energy>
    <i name="e_fr_energy">   -307.52971586 </i>
    <i name="e_wo_entrp">   -307.63786851 </i>
    <i name="e_0_energy">   -307.56576675 </i>
   </energy>
  </scstep>
  <scstep>
   <time name="diag">    0.41    0.58</time>
   <time name="diis">    2.22    2.83</time>
   <time name="orth">    0.11    0.19</time>
   <time name="total">    3.02    4.03</time>
   <energy>
    <i name="e_fr_energy">   -303.70297219 </i>
    <i name="e_wo_entrp">   -303.82893970 </i>
    <i name="e_0_energy">   -303.74496136 </i>
   </energy>
  </scstep>
  <scstep>
   <time name="diag">    0.65    0.75</time>
   <time name="diis">    2.42    2.99</time>
   <time name="orth">    0.20    0.30</time>
   <time name="total">    3.57    4.44</time>
   <energy>
    <i name="e_fr_energy">   -287.62736903 </i>
    <i name="e_wo_entrp">   -287.62674462 </i>
    <i name="e_0_energy">   -287.62716089 </i>
   </energy>
  </scstep>
  <scstep>
   <time name="diag">    0.36    0.50</time>
   <time name="diis">    2.11    2.80</time>
   <time name="orth">    0.15    0.20</time>
   <time name="total">    2.93    3.94</time>
   <energy>
    <i name="e_fr_energy">   -286.22561941 </i>
    <i name="e_wo_entrp">   -286.15745407 </i>
    <i name="e_0_energy">   -286.20289763 </i>
   </energy>
  </scstep>
  <scstep>
   <time name="diag">    0.64    0.76</time>
   <time name="diis">    2.33    2.91</time>
   <time name="orth">    0.10    0.17</time>
   <time name="total">    3.48    4.40</time>
   <energy>
    <i name="e_fr_energy">   -283.91214557 </i>
    <i name="e_wo_entrp">   -283.91847673 </i>
    <i name="e_0_energy">   -283.91425596 </i>
   </energy>
  </scstep>
  <scstep>
   <time name="diag">    0.59    1.01</time>
   <time name="diis">    2.21    2.70</time>
   <time name="orth">    0.11    0.12</time>
   <time name="total">    3.14    4.24</time>
   <energy>
    <i name="e_fr_energy">   -280.98651252 </i>
    <i name="e_wo_entrp">   -280.94551466 </i>
    <i name="e_0_energy">   -280.97284657 </i>
   </energy>
  </scstep>
  <scstep>
   <time name="diag">    0.33    0.44</time>
   <time name="diis">    2.06    2.80</time>
   <time name="orth">    0.09    0.10</time>
   <time name="total">    2.76    3.76</time>
   <energy>
    <i name="e_fr_energy">   -279.85037066 </i>
    <i name="e_wo_entrp">   -279.74653061 </i>
    <i name="e_0_energy">   -279.81575731 </i>
   </energy>
  </scstep>
  <scstep>
   <time name="diag">    0.43    0.54</time>
   <time name="diis">    2.26    2.73</time>
   <time name="orth">    0.12    0.16</time>
   <time name="total">    3.13    3.87</time>
   <energy>
    <i name="e_fr_energy">   -279.12567703 </i>
    <i name="e_wo_entrp">   -279.14824371 </i>
    <i name="e_0_energy">   -279.13319926 </i>
   </energy>
  </scstep>
  <scstep>
   <time name="diag">    0.42    0.58</time>
   <time name="diis">    2.01    2.67</time>
   <time name="orth">    0.13    0.16</time>
   <time name="total">    2.85    3.77</time>
   <energy>
    <i name="e_fr_energy">   -278.52535888 </i>
    <i name="e_wo_entrp">   -278.46198660 </i>
    <i name="e_0_energy">   -278.50423479 </i>
   </energy>
  </scstep>
  <scstep>
   <time name="diag">    0.41    0.54</time>
   <time name="diis">    2.19    2.77</time>
   <time name="orth">    0.10    0.10</time>
   <time name="total">    3.06    3.83</time>
   <energy>
    <i name="e_fr_energy">   -278.45719909 </i>
    <i name="e_wo_entrp">   -278.41321696 </i>
    <i name="e_0_energy">   -278.44253838 </i>
   </energy>
  </scstep>
  <scstep>
   <time name="diag">    0.45    0.51</time>
   <time name="diis">    2.28    2.76</time>
   <time name="orth">    0.10    0.12</time>
   <time name="total">    3.18    3.87</time>
   <energy>
    <i name="e_fr_energy">   -278.55106326 </i>
    <i name="e_wo_entrp">   -278.46266531 </i>
    <i name="e_0_energy">   -278.52159728 </i>
   </energy>
  </scstep>
  <scstep>
   <time name="diag">    0.36    0.55</time>
   <time name="diis">    2.34    2.73</time>
   <time name="orth">    0.13    0.17</time>
   <time name="total">    3.17    3.83</time>
   <energy>
    <i name="e_fr_energy">   -278.50726757 </i>
    <i name="e_wo_entrp">   -278.45647421 </i>
    <i name="e_0_energy">   -278.49033645 </i>
   </energy>
  </scstep>
  <scstep>
   <time name="diag">    0.40    0.52</time>
   <time name="diis">    2.05    2.66</time>
   <time name="orth">    0.09    0.15</time>
   <time name="total">    2.82    3.72</time>
   <energy>
    <i name="e_fr_energy">   -278.46691901 </i>
    <i name="e_wo_entrp">   -278.39502859 </i>
    <i name="e_0_energy">   -278.44295553 </i>
   </energy>
  </scstep>
  <scstep>
   <time name="diag">    0.51    0.63</time>
   <time name="diis">    2.27    2.90</time>
   <time name="orth">    0.18    0.26</time>
   <time name="total">    3.19    4.13</time>
   <energy>
    <i name="e_fr_energy">   -278.35005444 </i>
    <i name="e_wo_entrp">   -278.30859928 </i>
    <i name="e_0_energy">   -278.33623605 </i>
   </energy>
  </scstep>
  <scstep>
   <time name="diag">    0.32    0.41</time>
   <time name="diis">    1.99    2.95</time>
   <time name="orth">    0.10    0.12</time>
   <time name="total">    2.68    3.87</time>
   <energy>
    <i name="e_fr_energy">   -278.46730063 </i>
    <i name="e_wo_entrp">   -278.41535751 </i>
    <i name="e_0_energy">   -278.44998625 </i>
   </energy>
  </scstep>
  <scstep>
   <time name="diag">    0.43    0.59</time>
   <time name="diis">    2.33    2.72</time>
   <time name="orth">    0.08    0.13</time>
   <time name="total">    3.20    3.96</time>
   <energy>
    <i name="e_fr_energy">   -278.23777997 </i>
    <i name="e_wo_entrp">   -278.20679465 </i>
    <i name="e_0_energy">   -278.22745153 </i>
   </energy>
  </scstep>
  <scstep>
   <time name="diag">    0.45    0.59</time>
   <time name="diis">    2.15    2.83</time>
   <time name="orth">    0.10    0.12</time>
   <time name="total">    3.04    4.08</time>
   <energy>
    <i name="e_fr_energy">   -277.90157184 </i>
    <i name="e_wo_entrp">   -277.86024261 </i>
    <i name="e_0_energy">   -277.88779543 </i>
   </energy>
  </scstep>
  <scstep>
   <time name="diag">    0.44    0.58</time>
   <time name="diis">    2.36    3.10</time>
   <time name="orth">    0.14    0.14</time>
   <time name="total">    3.32    4.32</time>
   <energy>
    <i name="e_fr_energy">   -277.61164400 </i>
    <i name="e_wo_entrp">   -277.60670316 </i>
    <i name="e_0_energy">   -277.60999705 </i>
   </energy>
  </scstep>
  <scstep>
   <time name="diag">    0.54    0.71</time>
   <time name="diis">    2.47    3.35</time>
   <time name="orth">    0.12    0.14</time>
   <time name="total">    3.46    4.60</time>
   <energy>
    <i name="e_fr_energy">   -277.57548530 </i>
    <i name="e_wo_entrp">   -277.51325862 </i>
    <i name="e_0_energy">   -277.55474307 </i>
   </energy>
  </scstep>
  <scstep>
   <time name="diag">    0.40    0.46</time>
   <time name="diis">    2.04    2.70</time>
   <time name="orth">    0.17    0.22</time>
   <time name="total">    2.90    3.71</time>
   <energy>
    <i name="e_fr_energy">   -277.48607011 </i>
    <i name="e_wo_entrp">   -277.47898452 </i>
    <i name="e_0_energy">   -277.48370825 </i>
   </energy>
  </scstep>
  <scstep>
   <time name="diag">    0.41    0.44</time>
   <time name="diis">    2.34    2.80</time>
   <time name="orth">    0.18    0.23</time>
   <time name="total">    3.27    3.81</time>
   <energy>
    <i name="e_fr_energy">   -277.49835029 </i>
    <i name="e_wo_entrp">   -277.46852545 </i>
    <i name="e_0_energy">   -277.48840867 </i>
   </energy>
  </scstep>
  <scstep>
   <time name="diag">    0.30    0.43</time>
   <time name="diis">    2.12    2.69</time>
   <time name="orth">    0.12    0.14</time>
   <time name="total">    2.88    3.75</time>
   <energy>
    <i name="e_fr_energy">   -277.47500457 </i>
    <i name="e_wo_entrp">   -277.45988788 </i>
    <i name="e_0_energy">   -277.46996567 </i>
   </energy>
  </scstep>
  <scstep>
   <time name="diag">    0.33    0.53</time>
   <time name="diis">    2.27    2.95</time>
   <time name="orth">    0.10    0.10</time>
   <time name="total">    3.07    3.99</time>
   <energy>
    <i name="e_fr_energy">   -277.45484917 </i>
    <i name="e_wo_entrp">   -277.46615305 </i>
    <i name="e_0_energy">   -277.45861713 </i>
   </energy>
  </scstep>
  <scstep>
   <time name="diag">    0.28    0.34</time>
   <time name="diis">    2.01    2.64</time>
   <time name="orth">    0.13    0.15</time>
   <time name="total">    2.77    3.62</time>
   <energy>
    <i name="e_fr_energy">   -277.42912017 </i>
    <i name="e_wo_entrp">   -277.44648189 </i>
    <i name="e_0_energy">   -277.43490741 </i>
   </energy>
  </scstep>
  <scstep>
   <time name="diag">    0.34    0.44</time>
   <time name="diis">    1.96    2.56</time>
   <time name="orth">    0.13    0.15</time>
   <time name="total">    2.74    3.50</time>
   <energy>
    <i name="e_fr_energy">   -277.42285030 </i>
    <i name="e_wo_entrp">   -277.43830117 </i>
    <i name="e_0_energy">   -277.42800059 </i>
   </energy>
  </scstep>
  <scstep>
   <time name="diag">    0.46    0.64</time>
   <time name="diis">    1.96    2.43</time>
   <time name="orth">    0.09    0.12</time>
   <time name="total">    2.85    3.58</time>
   <energy>
    <i name="e_fr_energy">   -277.42257955 </i>
    <i name="e_wo_entrp">   -277.44574191 </i>
    <i name="e_0_energy">   -277.43030034 </i>
   </energy>
  </scstep>
  <scstep>
   <time name="diag">    0.36    0.66</time>
   <time name="diis">    1.61    2.18</time>
   <time name="orth">    0.30    0.37</time>
   <time name="total">    2.64    3.70</time>
   <energy>
    <i name="e_fr_energy">   -277.41652564 </i>
    <i name="e_wo_entrp">   -277.43729042 </i>
    <i name="e_0_energy">   -277.42344723 </i>
   </energy>
  </scstep>
  <scstep>
   <time name="diag">    0.36    0.41</time>
   <time name="diis">    1.44    1.84</time>
   <time name="orth">    0.12    0.18</time>
   <time name="total">    2.19    2.75</time>
   <energy>
    <i name="e_fr_energy">   -277.41539866 </i>
    <i name="e_wo_entrp">   -277.43971243 </i>
    <i name="e_0_energy">   -277.42350325 </i>
   </energy>
  </scstep>
  <scstep>
   <time name="diag">    0.41    0.59</time>
   <time name="diis">    1.70    2.25</time>
   <time name="orth">    0.17    0.25</time>
   <time name="total">    2.67    3.55</time>
   <energy>
    <i name="e_fr_energy">   -277.41585185 </i>
    <i name="e_wo_entrp">   -277.44177983 </i>
    <i name="e_0_energy">   -277.42449451 </i>
   </energy>
  </scstep>
  <scstep>
   <time name="diag">    0.32    0.43</time>
   <time name="diis">    1.35    1.85</time>
   <time name="orth">    0.10    0.15</time>
   <time name="total">    2.12    2.96</time>
   <energy>
    <i name="e_fr_energy">   -277.41633709 </i>
    <i name="e_wo_entrp">   -277.44507088 </i>
    <i name="e_0_energy">   -277.42591502 </i>
   </energy>
  </scstep>
  <scstep>
   <time name="diag">    0.30    0.35</time>
   <time name="diis">    1.15    1.60</time>
   <time name="orth">    0.17    0.19</time>
   <time name="total">    1.90    2.58</time>
   <energy>
    <i name="e_fr_energy">   -277.41720072 </i>
    <i name="e_wo_entrp">   -277.44513626 </i>
    <i name="e_0_energy">   -277.42651257 </i>
   </energy>
  </scstep>
  <scstep>
   <time name="diag">    0.43    0.47</time>
   <time name="diis">    1.08    1.56</time>
   <time name="orth">    0.09    0.13</time>
   <time name="total">    1.92    2.64</time>
   <energy>
    <i name="e_fr_energy">   -277.41751575 </i>
    <i name="e_wo_entrp">   -277.44750462 </i>
    <i name="e_0_energy">   -277.42751204 </i>
   </energy>
  </scstep>
  <scstep>
   <time name="diag">    0.31    0.46</time>
   <time name="diis">    1.08    1.50</time>
   <time name="orth">    0.16    0.17</time>
   <time name="total">    1.98    2.57</time>
   <energy>
    <i name="e_fr_energy">   -277.41816126 </i>
    <i name="e_wo_entrp">   -277.44842080 </i>
    <i name="e_0_energy">   -277.42824777 </i>
   </energy>
  </scstep>
  <scstep>
   <time name="diag">    0.40    0.48</time>
   <time name="diis">    1.17    1.49</time>
   <time name="orth">    0.19    0.30</time>
   <time name="total">    2.25    2.88</time>
   <energy>
    <i name="e_fr_energy">   -277.41859568 </i>
    <i name="e_wo_entrp">   -277.44965559 </i>
    <i name="e_0_energy">   -277.42894899 </i>
   </energy>
  </scstep>
  <scstep>
   <time name="diag">    0.47    0.61</time>
   <time name="diis">    1.14    1.50</time>
   <time name="orth">    0.13    0.13</time>
   <time name="total">    2.29    2.87</time>
   <energy>
    <i name="e_fr_energy">   -277.41884459 </i>
    <i name="e_wo_entrp">   -277.45039520 </i>
    <i name="e_0_energy">   -277.42936146 </i>
   </energy>
  </scstep>
  <scstep>
   <time name="diag">    0.48    0.63</time>
   <time name="diis">    1.33    1.56</time>
   <time name="orth">    0.17    0.17</time>
   <time name="total">    2.16    2.53</time>
   <energy>
    <i name="alphaZ">   1144.82473452 </i>
    <i name="ewald"> -19710.53482566 </i>
    <i name="hartreedc"> -12348.54341769 </i>
    <i name="XCdc">   1357.44397589 </i>
    <i name="pawpsdc">  32696.27488613 </i>
    <i name="pawaedc"> -33001.49126111 </i>
    <i name="eentropy">      0.03237520 </i>
    <i name="bandstr">  -2755.77323009 </i>
    <i name="atom">  32340.34786160 </i>
    <i name="e_fr_energy">   -277.41890121 </i>
    <i name="e_wo_entrp">   -277.45127641 </i>
    <i name="e_0_energy">   -277.42969294 </i>
   </energy>
  </scstep>
  <structure>
   <crystal>
    <varray name="basis" >
     <v>       9.33334200       0.00000000      -0.08412900 </v>
     <v>       0.00000000       5.35946700       0.00000000 </v>
     <v>       0.00000000       0.00000000      14.95565100 </v>
    </varray>
    <i name="volume">    748.10766265 </i>
    <varray name="rec_basis" >
     <v>       0.10714276       0.00000000       0.00000000 </v>
     <v>       0.00000000       0.18658572       0.00000000 </v>
     <v>       0.00060270       0.00000000       0.06686436 </v>
    </varray>
   </crystal>
   <varray name="positions" >
    <v>       0.16411200       0.48397600       0.17995900 </v>
    <v>       0.16411200       0.51602400       0.67995900 </v>
    <v>       0.66411200       0.98397600       0.17995900 </v>
    <v>       0.66411200       0.01602400       0.67995900 </v>
    <v>       0.17533200       0.47285200       0.97303200 </v>
    <v>       0.17533200       0.52714800       0.47349600 </v>
    <v>       0.67430600       0.97285200       0.97316500 </v>
    <v>       0.67533200       0.02714800       0.47303200 </v>
    <v>       0.33574700       0.02941400       0.82240100 </v>
    <v>       0.33162900       0.97058600       0.32240100 </v>
    <v>       0.83162900       0.52941400       0.82240100 </v>
    <v>       0.83162900       0.47058600       0.31392600 </v>
    <v>       0.33361900       0.00432000       0.51711500 </v>
    <v>       0.33361900       0.99568000       0.01711500 </v>
    <v>       0.83361900       0.50432000       0.51711500 </v>
    <v>       0.83364800       0.49568000       0.01711500 </v>
    <v>       0.30926400       0.26740800       0.92544800 </v>
    <v>       0.30926400       0.73259200       0.42544800 </v>
    <v>       0.80926400       0.76740800       0.92544800 </v>
    <v>       0.80926400       0.23259200       0.42544800 </v>
    <v>       0.00386100       0.36884200       0.24394900 </v>
    <v>       0.99843900       0.63115800       0.74394900 </v>
    <v>       0.51323000       0.86884200       0.24394900 </v>
    <v>       0.50386100       0.13115800       0.74394900 </v>
    <v>       0.02591400       0.39537700       0.57915900 </v>
    <v>       0.02975900       0.60462300       0.07915900 </v>
    <v>       0.52591400       0.89537700       0.57915900 </v>
    <v>       0.52591400       0.10462300       0.07915900 </v>
    <v>       0.17611800       0.21417000       0.08350500 </v>
    <v>       0.17611800       0.78583000       0.58350500 </v>
    <v>       0.67893700       0.71417000       0.08350500 </v>
    <v>       0.67611800       0.28748100       0.58350500 </v>
    <v>       0.18147400       0.20344500       0.73945400 </v>
    <v>       0.19136500       0.79655500       0.23945400 </v>
    <v>       0.68147400       0.70344500       0.73945400 </v>
    <v>       0.68147400       0.29655500       0.23945400 </v>
    <v>       0.18900300       0.20186000       0.42366300 </v>
    <v>       0.18742900       0.79814000       0.92366300 </v>
    <v>       0.68900300       0.70186000       0.42366300 </v>
    <v>       0.68900300       0.29814000       0.92877400 </v>
    <v>       0.29347700       0.34686800       0.57827500 </v>
    <v>       0.29347700       0.65313200       0.07827500 </v>
    <v>       0.79347700       0.84686800       0.57827500 </v>
    <v>       0.79347700       0.15313200       0.07491300 </v>
    <v>       0.30310600       0.30561100       0.24801900 </v>
    <v>       0.30310600       0.69438900       0.74801900 </v>
    <v>       0.80310600       0.80561100       0.24575400 </v>
    <v>       0.80310600       0.19438900       0.74801900 </v>
    <v>       0.49071400       0.13464800       0.42295500 </v>
    <v>       0.49071400       0.86535200       0.92766300 </v>
    <v>       0.99071400       0.63464800       0.42295500 </v>
    <v>       0.99071400       0.36535200       0.92880800 </v>
   </varray>
  </structure>
  <varray name="forces" >
   <v>       0.44962477       0.15017175      -0.60766333 </v>
   <v>      -0.04851377      -0.14006684      -0.34672405 </v>
   <v>       0.49629780       0.34678693      -0.93691483 </v>
   <v>       0.21695640      -0.22274726      -0.49818082 </v>
   <v>       0.46049790      -0.70789336       1.45873852 </v>
   <v>       0.22713542       0.78490997       1.13989505 </v>
   <v>       0.64448845      -0.86891472       1.64644597 </v>
   <v>       0.51341039       0.75718414       1.22975741 </v>
   <v>      -0.75846041       1.07420739      -0.02560702 </v>
   <v>      -0.42871993      -1.11538687       0.09735816 </v>
   <v>      -0.52709101       1.18709281      -0.16286751 </v>
   <v>      -0.56043530      -0.83435984       0.38355286 </v>
   <v>       0.18401278      -1.24241394      -1.31780048 </v>
   <v>       0.16629453       1.27460533      -1.29186420 </v>
   <v>       0.22614999      -1.30222288      -1.66546332 </v>
   <v>       0.38287183       1.24338703      -1.46438523 </v>
   <v>      -0.20319127      -1.75304989       0.12720550 </v>
   <v>      -0.26223859       1.76272957       0.17487287 </v>
   <v>      -0.36368072      -1.70329629       0.10216414 </v>
   <v>      -0.42602782       1.57578714       0.30171904 </v>
   <v>      -0.41622571       0.15489335       0.31925220 </v>
   <v>      -0.12654059      -0.31459247       0.29385333 </v>
   <v>      -0.92310373      -0.02802873       0.69173820 </v>
   <v>      -0.40110662      -0.18740276       0.42992502 </v>
   <v>      -0.67717825       0.19862659      -0.36924044 </v>
   <v>      -0.84103301      -0.10233756      -0.25514761 </v>
   <v>      -0.70316359       0.23077836      -0.35682709 </v>
   <v>      -0.72034381      -0.20994707      -0.30072233 </v>
   <v>       0.23657612      -0.40166028      -0.37174556 </v>
   <v>       0.21938534       0.39639769      -0.32787087 </v>
   <v>       0.07259057      -0.41862895      -0.42350681 </v>
   <v>       0.17992170       0.28778868      -0.42145602 </v>
   <v>       0.71712473       0.14452755       0.64760576 </v>
   <v>       0.40505616       0.00480836       0.62242611 </v>
   <v>       0.66041474       0.09505860       0.65573619 </v>
   <v>       0.75162061      -0.02775037       0.47032855 </v>
   <v>       0.51877066      -0.25994249       0.05525565 </v>
   <v>       0.52858982       0.26745830       0.04548633 </v>
   <v>       0.45189064      -0.21511421       0.12106587 </v>
   <v>       0.34251486       0.58163042      -0.35618041 </v>
   <v>       0.30187364       0.09147071      -0.32361943 </v>
   <v>       0.40569261      -0.07077232      -0.35080153 </v>
   <v>       0.23368393       0.16698447      -0.33973586 </v>
   <v>       0.34393652      -0.14899882      -0.06635643 </v>
   <v>      -0.14964034      -0.25438197       0.36078145 </v>
   <v>      -0.12466586       0.17390383       0.33701349 </v>
   <v>       0.06768515      -0.32927517       0.47033170 </v>
   <v>      -0.16321616       0.20905517       0.38987316 </v>
   <v>      -0.34692833      -0.40479336       0.16021843 </v>
   <v>      -0.50289968       0.28223410      -0.22396295 </v>
   <v>      -0.25236010      -0.45642701       0.24318813 </v>
   <v>      -0.47830342       0.27792716      -0.17114499 </v>
  </varray>
  <varray name="stress" >
   <v>    -190.58565909       0.53343319       0.90934997 </v>
   <v>       0.53343271    -203.66661808      -0.36402227 </v>
   <v>       0.90935084      -0.36402199    -226.00756592 </v>
  </varray>
  <energy>
   <i name="e_fr_energy">   -277.41890121 </i>
   <i name="e_wo_entrp">   -277.42969294 </i>
   <i name="e_0_energy">      0.03237520 </i>
  </energy>
  <time name="totalsc">  174.74  226.12</time>
  <eigenvalues>
   <array>
    <dimension dim="1">band</dimension>
    <dimension dim="2">kpoint</dimension>
    <dimension dim="3">spin</dimension>
    <field>eigene</field>
    <field>occ</field>
    <set>
     <set comment="spin 1">
      <set comment="kpoint 1">
       <r>  -23.9594    1.0000 </r>
       <r>  -23.8701    1.0000 </r>
       <r>  -23.7949    1.0000 </r>
       <r>  -23.7279    1.0000 </r>
       <r>  -23.6765    1.0000 </r>
       <r>  -23.6491    1.0000 </r>
       <r>  -23.5949    1.0000 </r>
       <r>  -23.5607    1.0000 </r>
       <r>  -23.5280    1.0000 </r>
       <r>  -23.5007    1.0000 </r>
       <r>  -23.4640    1.0000 </r>
       <r>  -23.3736    1.0000 </r>
       <r>  -23.3397    1.0000 </r>
       <r>  -23.3137    1.0000 </r>
       <r>  -23.2159    1.0000 </r>
       <r>  -23.2086    1.0000 </r>
       <r>  -23.1984    1.0000 </r>
       <r>  -23.1922    1.0000 </r>
       <r>  -23.1780    1.0000 </r>
       <r>  -23.1251    1.0000 </r>
       <r>  -23.1111    1.0000 </r>
       <r>  -23.0820    1.0000 </r>
       <r>  -23.0816    1.0000 </r>
       <r>  -23.0357    1.0000 </r>
       <r>  -23.0280    1.0000 </r>
       <r>  -23.0248    1.0000 </r>
       <r>  -22.9991    1.0000 </r>
       <r>  -22.9504    1.0000 </r>
       <r>  -22.8635    1.0000 </r>
       <r>  -22.7433    1.0000 </r>
       <r>  -22.7316    1.0000 </r>
       <r>  -22.6999    1.0000 </r>
       <r>  -18.6385    1.0000 </r>
       <r>  -18.6190    1.0000 </r>
       <r>  -18.6089    1.0000 </r>
       <r>  -18.4533    1.0000 </r>
       <r>   -6.9855    1.0000 </r>
       <r>   -6.9756    1.0000 </r>
       <r>   -6.8499    1.0000 </r>
       <r>   -6.8137    1.0000 </r>
       <r>   -6.7871    1.0000 </r>
       <r>   -6.7227    1.0000 </r>
       <r>   -6.6973    1.0000 </r>
       <r>   -6.6314    1.0000 </r>
       <r>   -6.5416    1.0000 </r>
       <r>   -6.4128    1.0000 </r>
       <r>   -6.3437    1.0000 </r>
       <r>   -6.3290    1.0000 </r>
       <r>   -6.2509    1.0000 </r>
       <r>   -6.2470    1.0000 </r>
       <r>   -6.2116    1.0000 </r>
       <r>   -6.1540    1.0000 </r>
       <r>   -6.1369    1.0000 </r>
       <r>   -6.0775    1.0000 </r>
       <r>   -6.0611    1.0000 </r>
       <r>   -6.0400    1.0000 </r>
       <r>   -6.0240    1.0000 </r>
       <r>   -6.0216    1.0000 </r>
       <r>   -5.9723    1.0000 </r>
       <r>   -5.9713    1.0000 </r>
       <r>   -5.9495    1.0000 </r>
       <r>   -5.9215    1.0000 </r>
       <r>   -5.8975    1.0000 </r>
       <r>   -5.8697    1.0000 </r>
       <r>   -5.8577    1.0000 </r>
       <r>   -5.8176    1.0000 </r>
       <r>   -5.8116    1.0000 </r>
       <r>   -5.7512    1.0000 </r>
       <r>   -5.7079    1.0000 </r>
       <r>   -5.6988    1.0000 </r>
       <r>   -5.6758    1.0000 </r>
       <r>   -5.6375    1.0000 </r>
       <r>   -5.6353    1.0000 </r>
       <r>   -5.5914    1.0000 </r>
       <r>   -5.5690    1.0000 </r>
       <r>   -5.5365    1.0000 </r>
       <r>   -5.5138    1.0000 </r>
       <r>   -5.4909    1.0000 </r>
       <r>   -5.4715    1.0000 </r>
       <r>   -5.4264    1.0000 </r>
       <r>   -5.3832    1.0000 </r>
       <r>   -5.3326    1.0000 </r>
       <r>   -5.2222    1.0000 </r>
       <r>   -5.2185    1.0000 </r>
       <r>   -5.1759    1.0000 </r>
       <r>   -5.1457    1.0000 </r>
       <r>   -5.1026    1.0000 </r>
       <r>   -5.0569    1.0000 </r>
       <r>   -4.9966    1.0000 </r>
       <r>   -4.9752    1.0000 </r>
       <r>   -4.9461    1.0000 </r>
       <r>   -4.9421    1.0000 </r>
       <r>   -4.8384    1.0000 </r>
       <r>   -4.8054    1.0000 </r>
       <r>   -4.7946    1.0000 </r>
       <r>   -4.7504    1.0000 </r>
       <r>   -4.7410    1.0000 </r>
       <r>   -4.7324    1.0000 </r>
       <r>   -4.7015    1.0000 </r>
       <r>   -4.6556    1.0000 </r>
       <r>   -4.6214    1.0000 </r>
       <r>   -4.5799    1.0000 </r>
       <r>   -4.5588    1.0000 </r>
       <r>   -4.5176    1.0000 </r>
       <r>   -4.5010    1.0000 </r>
       <r>   -4.4930    1.0000 </r>
       <r>   -4.4742    1.0000 </r>
       <r>   -4.4406    1.0000 </r>
       <r>   -4.4284    1.0000 </r>
       <r>   -4.3905    1.0000 </r>
       <r>   -4.3703    1.0000 </r>
       <r>   -4.3240    1.0000 </r>
       <r>   -4.2977    1.0000 </r>
       <r>   -4.2781    1.0000 </r>
       <r>   -4.2125    1.0000 </r>
       <r>   -4.1543    1.0000 </r>
       <r>   -4.1238    1.0000 </r>
       <r>   -4.0730    1.0000 </r>
       <r>   -4.0679    1.0000 </r>
       <r>   -4.0398    1.0000 </r>
       <r>   -4.0246    1.0000 </r>
       <r>   -3.9985    1.0000 </r>
       <r>   -3.9963    1.0000 </r>
       <r>   -3.9711    1.0000 </r>
       <r>   -3.9031    1.0000 </r>
       <r>   -3.8778    1.0000 </r>
       <r>   -3.8293    1.0000 </r>
       <r>   -3.8259    1.0000 </r>
       <r>   -3.7832    1.0000 </r>
       <r>   -3.7671    1.0000 </r>
       <r>   -3.7563    1.0000 </r>
       <r>   -3.7297    1.0000 </r>
       <r>   -3.7199    1.0000 </r>
       <r>   -3.7164    1.0000 </r>
       <r>   -3.7013    1.0000 </r>
       <r>   -3.6386    1.0000 </r>
       <r>   -3.6157    1.0000 </r>
       <r>   -3.5722    1.0000 </r>
       <r>   -3.5230    1.0000 </r>
       <r>   -3.4879    1.0000 </r>
       <r>   -3.4660    1.0000 </r>
       <r>   -3.4310    1.0000 </r>
       <r>   -3.3921    1.0000 </r>
       <r>   -3.3490    1.0000 </r>
       <r>   -0.7538    1.0000 </r>
       <r>   -0.7217    1.0000 </r>
       <r>   -0.7174    1.0000 </r>
       <r>   -0.6676    1.0000 </r>
       <r>   -0.6423    1.0000 </r>
       <r>   -0.6396    1.0000 </r>
       <r>   -0.6195    1.0001 </r>
       <r>   -0.5966    1.0001 </r>
       <r>   -0.5748    1.0003 </r>
       <r>   -0.5565    1.0004 </r>
       <r>   -0.5515    1.0005 </r>
       <r>   -0.5314    1.0008 </r>
       <r>   -0.5243    1.0009 </r>
       <r>   -0.4959    1.0017 </r>
       <r>   -0.4834    1.0022 </r>
       <r>   -0.4596    1.0035 </r>
       <r>   -0.4384    1.0052 </r>
       <r>   -0.3989    1.0100 </r>
       <r>   -0.3795    1.0133 </r>
       <r>   -0.3716    1.0148 </r>
       <r>   -0.3509    1.0191 </r>
       <r>   -0.3407    1.0214 </r>
       <r>   -0.3326    1.0232 </r>
       <r>   -0.3188    1.0264 </r>
       <r>   -0.3159    1.0271 </r>
       <r>   -0.3139    1.0275 </r>
       <r>   -0.2920    1.0320 </r>
       <r>   -0.2785    1.0341 </r>
       <r>   -0.2633    1.0354 </r>
       <r>   -0.2585    1.0355 </r>
       <r>   -0.2493    1.0351 </r>
       <r>   -0.2343    1.0329 </r>
       <r>   -0.2113    1.0240 </r>
       <r>   -0.1969    1.0144 </r>
       <r>   -0.1707    0.9866 </r>
       <r>   -0.1640    0.9771 </r>
       <r>   -0.1346    0.9229 </r>
       <r>   -0.1032    0.8410 </r>
       <r>   -0.1012    0.8351 </r>
       <r>   -0.0945    0.8141 </r>
       <r>   -0.0914    0.8041 </r>
       <r>   -0.0758    0.7506 </r>
       <r>   -0.0619    0.6991 </r>
       <r>   -0.0425    0.6221 </r>
       <r>   -0.0047    0.4634 </r>
       <r>    0.0192    0.3646 </r>
       <r>    0.0398    0.2837 </r>
       <r>    0.0742    0.1661 </r>
       <r>    0.0802    0.1483 </r>
       <r>    0.1236    0.0455 </r>
       <r>    0.1364    0.0243 </r>
       <r>    0.1587   -0.0038 </r>
       <r>    0.1972   -0.0297 </r>
       <r>    0.2237   -0.0352 </r>
       <r>    0.2505   -0.0343 </r>
       <r>    0.2726   -0.0306 </r>
       <r>    0.3139   -0.0214 </r>
       <r>    0.3411   -0.0155 </r>
       <r>    0.3552   -0.0129 </r>
       <r>    0.4125   -0.0052 </r>
       <r>    0.4768   -0.0014 </r>
       <r>    0.5289   -0.0004 </r>
       <r>    0.5820   -0.0001 </r>
       <r>    0.6147   -0.0000 </r>
       <r>    0.6552   -0.0000 </r>
       <r>    0.8152   -0.0000 </r>
       <r>    0.8250   -0.0000 </r>
       <r>    0.8644   -0.0000 </r>
       <r>    0.8874   -0.0000 </r>
       <r>    0.9176   -0.0000 </r>
       <r>    0.9648   -0.0000 </r>
       <r>    1.0862   -0.0000 </r>
       <r>    1.0997   -0.0000 </r>
       <r>    1.1103   -0.0000 </r>
       <r>    1.1809   -0.0000 </r>
       <r>    1.2017   -0.0000 </r>
       <r>    1.2676   -0.0000 </r>
       <r>    1.2895   -0.0000 </r>
       <r>    1.3417   -0.0000 </r>
       <r>    1.3881   -0.0000 </r>
       <r>    3.4309   -0.0000 </r>
       <r>    4.2945   -0.0000 </r>
       <r>    4.6946   -0.0000 </r>
       <r>    5.6406    0.0000 </r>
      </set>
     </set>
    </set>
   </array>
  </eigenvalues>
  <separator name="orbital magnetization" >
   <v name="MAGDIPOLOUT">      0.00000000      0.00000000      0.00000000</v>
  </separator>
  <dos>
   <i name="efermi">     -0.01331259 </i>
   <total>
    <array>
     <dimension dim="1">gridpoints</dimension>
     <dimension dim="2">spin</dimension>
     <field>energy</field>
     <field>total</field>
     <field>integrated</field>
     <set>
      <set comment="spin 1">
       <r>   -25.9594     0.0000     0.0000 </r>
       <r>   -25.8474     0.0000     0.0000 </r>
       <r>   -25.7354     0.0000     0.0000 </r>
       <r>   -25.6234    -0.0000    -0.0000 </r>
       <r>   -25.5114    -0.0000    -0.0000 </r>
       <r>   -25.3994    -0.0000    -0.0000 </r>
       <r>   -25.2874    -0.0000    -0.0000 </r>
       <r>   -25.1754    -0.0000    -0.0000 </r>
       <r>   -25.0634    -0.0000    -0.0000 </r>
       <r>   -24.9514    -0.0000    -0.0000 </r>
       <r>   -24.8394    -0.0000    -0.0000 </r>
       <r>   -24.7274    -0.0000    -0.0000 </r>
       <r>   -24.6154    -0.0003    -0.0000 </r>
       <r>   -24.5034    -0.0077    -0.0009 </r>
       <r>   -24.3914    -0.0891    -0.0109 </r>
       <r>   -24.2794    -0.4748    -0.0641 </r>
       <r>   -24.1674    -0.7800    -0.1514 </r>
       <r>   -24.0554     2.1752     0.0922 </r>
       <r>   -23.9434    11.1758     1.3439 </r>
       <r>   -23.8314    22.5677     3.8715 </r>
       <r>   -23.7194    34.0766     7.6881 </r>
       <r>   -23.6074    45.4798    12.7818 </r>
       <r>   -23.4954    48.7470    18.2415 </r>
       <r>   -23.3834    43.7559    23.1421 </r>
       <r>   -23.2714    50.4274    28.7900 </r>
       <r>   -23.1594    74.6331    37.1489 </r>
       <r>   -23.0474    87.1120    46.9054 </r>
       <r>   -22.9354    66.4142    54.3438 </r>
       <r>   -22.8234    37.9270    58.5916 </r>
       <r>   -22.7114    27.4405    61.6650 </r>
       <r>   -22.5994    18.3801    63.7236 </r>
       <r>   -22.4874     4.5666    64.2350 </r>
       <r>   -22.3754    -1.1705    64.1039 </r>
       <r>   -22.2634    -0.7774    64.0169 </r>
       <r>   -22.1514    -0.1389    64.0013 </r>
       <r>   -22.0394    -0.0111    64.0001 </r>
       <r>   -21.9274    -0.0004    64.0000 </r>
       <r>   -21.8154    -0.0000    64.0000 </r>
       <r>   -21.7034    -0.0000    64.0000 </r>
       <r>   -21.5914    -0.0000    64.0000 </r>
       <r>   -21.4794    -0.0000    64.0000 </r>
       <r>   -21.3674    -0.0000    64.0000 </r>
       <r>   -21.2554     0.0000    64.0000 </r>
       <r>   -21.1434     0.0000    64.0000 </r>
       <r>   -21.0314     0.0000    64.0000 </r>
       <r>   -20.9194     0.0000    64.0000 </r>
       <r>   -20.8074     0.0000    64.0000 </r>
       <r>   -20.6954     0.0000    64.0000 </r>
       <r>   -20.5834     0.0000    64.0000 </r>
       <r>   -20.4714     0.0000    64.0000 </r>
       <r>   -20.3594     0.0000    64.0000 </r>
       <r>   -20.2474    -0.0000    64.0000 </r>
       <r>   -20.1354    -0.0000    64.0000 </r>
       <r>   -20.0234    -0.0000    64.0000 </r>
       <r>   -19.9114    -0.0000    64.0000 </r>
       <r>   -19.7994    -0.0000    64.0000 </r>
       <r>   -19.6874    -0.0000    64.0000 </r>
       <r>   -19.5754    -0.0000    64.0000 </r>
       <r>   -19.4634    -0.0000    64.0000 </r>
       <r>   -19.3514    -0.0001    64.0000 </r>
       <r>   -19.2394    -0.0032    63.9996 </r>
       <r>   -19.1274    -0.0540    63.9936 </r>
       <r>   -19.0154    -0.4305    63.9454 </r>
       <r>   -18.9034    -1.2479    63.8056 </r>
       <r>   -18.7914     1.4291    63.9657 </r>
       <r>   -18.6794    14.1451    65.5499 </r>
       <r>   -18.5674    26.4532    68.5127 </r>
       <r>   -18.4554    21.8678    70.9619 </r>
       <r>   -18.3434     9.1166    71.9829 </r>
       <r>   -18.2314     1.2458    72.1224 </r>
       <r>   -18.1194    -0.6778    72.0465 </r>
       <r>   -18.0074    -0.3485    72.0075 </r>
       <r>   -17.8954    -0.0617    72.0006 </r>
       <r>   -17.7834    -0.0050    72.0000 </r>
       <r>   -17.6714    -0.0002    72.0000 </r>
       <r>   -17.5594    -0.0000    72.0000 </r>
       <r>   -17.4474    -0.0000    72.0000 </r>
       <r>   -17.3354    -0.0000    72.0000 </r>
       <r>   -17.2234    -0.0000    72.0000 </r>
       <r>   -17.1114     0.0000    72.0000 </r>
       <r>   -16.9994     0.0000    72.0000 </r>
       <r>   -16.8874     0.0000    72.0000 </r>
       <r>   -16.7754     0.0000    72.0000 </r>
       <r>   -16.6634     0.0000    72.0000 </r>
       <r>   -16.5514     0.0000    72.0000 </r>
       <r>   -16.4394     0.0000    72.0000 </r>
       <r>   -16.3274     0.0000    72.0000 </r>
       <r>   -16.2154     0.0000    72.0000 </r>
       <r>   -16.1034     0.0000    72.0000 </r>
       <r>   -15.9914     0.0000    72.0000 </r>
       <r>   -15.8794     0.0000    72.0000 </r>
       <r>   -15.7674     0.0000    72.0000 </r>
       <r>   -15.6554     0.0000    72.0000 </r>
       <r>   -15.5434     0.0000    72.0000 </r>
       <r>   -15.4314     0.0000    72.0000 </r>
       <r>   -15.3194     0.0000    72.0000 </r>
       <r>   -15.2074     0.0000    72.0000 </r>
       <r>   -15.0954     0.0000    72.0000 </r>
       <r>   -14.9834     0.0000    72.0000 </r>
       <r>   -14.8714     0.0000    72.0000 </r>
       <r>   -14.7594     0.0000    72.0000 </r>
       <r>   -14.6474     0.0000    72.0000 </r>
       <r>   -14.5354     0.0000    72.0000 </r>
       <r>   -14.4234     0.0000    72.0000 </r>
       <r>   -14.3114     0.0000    72.0000 </r>
       <r>   -14.1994     0.0000    72.0000 </r>
       <r>   -14.0874     0.0000    72.0000 </r>
       <r>   -13.9754     0.0000    72.0000 </r>
       <r>   -13.8634     0.0000    72.0000 </r>
       <r>   -13.7514     0.0000    72.0000 </r>
       <r>   -13.6394     0.0000    72.0000 </r>
       <r>   -13.5274     0.0000    72.0000 </r>
       <r>   -13.4154     0.0000    72.0000 </r>
       <r>   -13.3034     0.0000    72.0000 </r>
       <r>   -13.1914     0.0000    72.0000 </r>
       <r>   -13.0794     0.0000    72.0000 </r>
       <r>   -12.9674     0.0000    72.0000 </r>
       <r>   -12.8554     0.0000    72.0000 </r>
       <r>   -12.7434     0.0000    72.0000 </r>
       <r>   -12.6314     0.0000    72.0000 </r>
       <r>   -12.5194     0.0000    72.0000 </r>
       <r>   -12.4074     0.0000    72.0000 </r>
       <r>   -12.2954     0.0000    72.0000 </r>
       <r>   -12.1834     0.0000    72.0000 </r>
       <r>   -12.0714     0.0000    72.0000 </r>
       <r>   -11.9594     0.0000    72.0000 </r>
       <r>   -11.8474     0.0000    72.0000 </r>
       <r>   -11.7354     0.0000    72.0000 </r>
       <r>   -11.6234     0.0000    72.0000 </r>
       <r>   -11.5114     0.0000    72.0000 </r>
       <r>   -11.3994     0.0000    72.0000 </r>
       <r>   -11.2874     0.0000    72.0000 </r>
       <r>   -11.1754     0.0000    72.0000 </r>
       <r>   -11.0634     0.0000    72.0000 </r>
       <r>   -10.9514     0.0000    72.0000 </r>
       <r>   -10.8394     0.0000    72.0000 </r>
       <r>   -10.7274     0.0000    72.0000 </r>
       <r>   -10.6154     0.0000    72.0000 </r>
       <r>   -10.5034     0.0000    72.0000 </r>
       <r>   -10.3914     0.0000    72.0000 </r>
       <r>   -10.2794     0.0000    72.0000 </r>
       <r>   -10.1674     0.0000    72.0000 </r>
       <r>   -10.0554     0.0000    72.0000 </r>
       <r>    -9.9434     0.0000    72.0000 </r>
       <r>    -9.8314     0.0000    72.0000 </r>
       <r>    -9.7194     0.0000    72.0000 </r>
       <r>    -9.6074     0.0000    72.0000 </r>
       <r>    -9.4954     0.0000    72.0000 </r>
       <r>    -9.3834     0.0000    72.0000 </r>
       <r>    -9.2714     0.0000    72.0000 </r>
       <r>    -9.1594     0.0000    72.0000 </r>
       <r>    -9.0474     0.0000    72.0000 </r>
       <r>    -8.9354     0.0000    72.0000 </r>
       <r>    -8.8234     0.0000    72.0000 </r>
       <r>    -8.7114     0.0000    72.0000 </r>
       <r>    -8.5994    -0.0000    72.0000 </r>
       <r>    -8.4874    -0.0000    72.0000 </r>
       <r>    -8.3754    -0.0000    72.0000 </r>
       <r>    -8.2634    -0.0000    72.0000 </r>
       <r>    -8.1514    -0.0000    72.0000 </r>
       <r>    -8.0394    -0.0000    72.0000 </r>
       <r>    -7.9274    -0.0000    72.0000 </r>
       <r>    -7.8154    -0.0000    72.0000 </r>
       <r>    -7.7034    -0.0001    72.0000 </r>
       <r>    -7.5914    -0.0024    71.9997 </r>
       <r>    -7.4794    -0.0412    71.9951 </r>
       <r>    -7.3674    -0.3313    71.9580 </r>
       <r>    -7.2554    -1.0460    71.8408 </r>
       <r>    -7.1434     0.3171    71.8764 </r>
       <r>    -7.0314     9.1409    72.9001 </r>
       <r>    -6.9194    23.8475    75.5711 </r>
       <r>    -6.8074    36.8391    79.6971 </r>
       <r>    -6.6954    40.5838    84.2424 </r>
       <r>    -6.5834    31.1382    87.7299 </r>
       <r>    -6.4714    21.6905    90.1592 </r>
       <r>    -6.3594    27.6167    93.2523 </r>
       <r>    -6.2474    43.3625    98.1089 </r>
       <r>    -6.1354    59.5145   104.7745 </r>
       <r>    -6.0234    77.9273   113.5024 </r>
       <r>    -5.9114    87.5151   123.3041 </r>
       <r>    -5.7994    79.5415   132.2127 </r>
       <r>    -5.6874    72.3618   140.3172 </r>
       <r>    -5.5754    74.0269   148.6083 </r>
       <r>    -5.4634    67.9127   156.2145 </r>
       <r>    -5.3514    49.9678   161.8109 </r>
       <r>    -5.2394    40.0380   166.2951 </r>
       <r>    -5.1274    45.1975   171.3572 </r>
       <r>    -5.0154    50.4945   177.0126 </r>
       <r>    -4.9034    52.3498   182.8758 </r>
       <r>    -4.7914    58.7177   189.4522 </r>
       <r>    -4.6794    66.9274   196.9480 </r>
       <r>    -4.5674    72.0957   205.0228 </r>
       <r>    -4.4554    77.6077   213.7148 </r>
       <r>    -4.3434    71.8403   221.7609 </r>
       <r>    -4.2314    56.1940   228.0547 </r>
       <r>    -4.1194    55.1360   234.2299 </r>
       <r>    -4.0074    67.9547   241.8408 </r>
       <r>    -3.8954    73.8672   250.1139 </r>
       <r>    -3.7834    79.9478   259.0681 </r>
       <r>    -3.6714    82.3797   268.2946 </r>
       <r>    -3.5594    68.7290   275.9923 </r>
       <r>    -3.4474    54.8129   282.1313 </r>
       <r>    -3.3354    38.7978   286.4767 </r>
       <r>    -3.2234    15.3386   288.1946 </r>
       <r>    -3.1114     0.5539   288.2566 </r>
       <r>    -2.9994    -1.6671   288.0699 </r>
       <r>    -2.8874    -0.5461   288.0087 </r>
       <r>    -2.7754    -0.0731   288.0006 </r>
       <r>    -2.6634    -0.0048   288.0000 </r>
       <r>    -2.5514    -0.0002   288.0000 </r>
       <r>    -2.4394    -0.0000   288.0000 </r>
       <r>    -2.3274    -0.0000   288.0000 </r>
       <r>    -2.2154    -0.0000   288.0000 </r>
       <r>    -2.1034    -0.0000   288.0000 </r>
       <r>    -1.9914    -0.0000   288.0000 </r>
       <r>    -1.8794    -0.0000   288.0000 </r>
       <r>    -1.7674    -0.0000   288.0000 </r>
       <r>    -1.6554    -0.0000   288.0000 </r>
       <r>    -1.5434    -0.0000   288.0000 </r>
       <r>    -1.4314    -0.0003   288.0000 </r>
       <r>    -1.3194    -0.0081   287.9991 </r>
       <r>    -1.2074    -0.1221   287.9854 </r>
       <r>    -1.0954    -0.9012   287.8845 </r>
       <r>    -0.9834    -2.7762   287.5735 </r>
       <r>    -0.8714     0.4530   287.6242 </r>
       <r>    -0.7594    24.4848   290.3665 </r>
       <r>    -0.6474    68.1077   297.9946 </r>
       <r>    -0.5354   101.5206   309.3649 </r>
       <r>    -0.4234   116.9387   322.4621 </r>
       <r>    -0.3114   134.9402   337.5754 </r>
       <r>    -0.1994   143.4124   353.6375 </r>
       <r>    -0.0874   128.3050   368.0077 </r>
       <r>     0.0246   103.8014   379.6335 </r>
       <r>     0.1366    83.7321   389.0114 </r>
       <r>     0.2486    72.5320   397.1350 </r>
       <r>     0.3606    61.1820   403.9874 </r>
       <r>     0.4726    47.1239   409.2653 </r>
       <r>     0.5846    37.8106   413.5001 </r>
       <r>     0.6966    32.1080   417.0962 </r>
       <r>     0.8086    34.5171   420.9621 </r>
       <r>     0.9206    43.2294   425.8038 </r>
       <r>     1.0326    43.8115   430.7107 </r>
       <r>     1.1446    45.1858   435.7715 </r>
       <r>     1.2566    48.5033   441.2038 </r>
       <r>     1.3686    39.9798   445.6816 </r>
       <r>     1.4806    19.8119   447.9005 </r>
       <r>     1.5926     3.2355   448.2629 </r>
       <r>     1.7046    -1.4513   448.1004 </r>
       <r>     1.8166    -0.7535   448.0160 </r>
       <r>     1.9286    -0.1314   448.0013 </r>
       <r>     2.0406    -0.0108   448.0001 </r>
       <r>     2.1526    -0.0004   448.0000 </r>
       <r>     2.2646    -0.0000   448.0000 </r>
       <r>     2.3766    -0.0000   448.0000 </r>
       <r>     2.4886    -0.0000   448.0000 </r>
       <r>     2.6006    -0.0000   448.0000 </r>
       <r>     2.7126    -0.0000   448.0000 </r>
       <r>     2.8246    -0.0014   447.9998 </r>
       <r>     2.9366    -0.0220   447.9974 </r>
       <r>     3.0486    -0.1645   447.9790 </r>
       <r>     3.1606    -0.4082   447.9332 </r>
       <r>     3.2726     0.8123   448.0242 </r>
       <r>     3.3846     5.3130   448.6193 </r>
       <r>     3.4966     8.0767   449.5239 </r>
       <r>     3.6086     4.4176   450.0186 </r>
       <r>     3.7206     0.3639   450.0594 </r>
       <r>     3.8326    -0.4376   450.0104 </r>
       <r>     3.9446    -0.3711   449.9688 </r>
       <r>     4.0566    -0.3509   449.9295 </r>
       <r>     4.1686     1.8174   450.1331 </r>
       <r>     4.2806     6.5790   450.8699 </r>
       <r>     4.3926     7.1900   451.6752 </r>
       <r>     4.5046     3.0873   452.0210 </r>
       <r>     4.6166     3.7195   452.4376 </r>
       <r>     4.7286     7.6306   453.2922 </r>
       <r>     4.8406     5.7899   453.9407 </r>
       <r>     4.9526     1.1525   454.0697 </r>
       <r>     5.0646    -0.4012   454.0248 </r>
       <r>     5.1766    -0.2353   453.9984 </r>
       <r>     5.2886    -0.2701   453.9682 </r>
       <r>     5.4006    -0.3474   453.9293 </r>
       <r>     5.5126     1.7536   454.1257 </r>
       <r>     5.6246     6.6017   454.8651 </r>
       <r>     5.7366     7.6139   455.7178 </r>
       <r>     5.8486     3.0336   456.0576 </r>
       <r>     5.9606    -0.1023   456.0461 </r>
       <r>     6.0726    -0.3296   456.0092 </r>
       <r>     6.1846    -0.0750   456.0008 </r>
       <r>     6.2966    -0.0070   456.0000 </r>
       <r>     6.4086    -0.0003   456.0000 </r>
       <r>     6.5206    -0.0000   456.0000 </r>
       <r>     6.6326    -0.0000   456.0000 </r>
       <r>     6.7446    -0.0000   456.0000 </r>
       <r>     6.8566    -0.0000   456.0000 </r>
       <r>     6.9686    -0.0000   456.0000 </r>
       <r>     7.0806     0.0000   456.0000 </r>
       <r>     7.1926     0.0000   456.0000 </r>
       <r>     7.3046     0.0000   456.0000 </r>
       <r>     7.4166     0.0000   456.0000 </r>
       <r>     7.5286     0.0000   456.0000 </r>
       <r>     7.6406     0.0000   456.0000 </r>
      </set>
     </set>
    </array>
   </total>
  </dos>
 </calculation>
 <structure name="finalpos" >
  <crystal>
   <varray name="basis" >
    <v>       9.33334200       0.00000000      -0.08412900 </v>
    <v>       0.00000000       5.35946700       0.00000000 </v>
    <v>       0.00000000       0.00000000      14.95565100 </v>
   </varray>
   <i name="volume">    748.10766265 </i>
   <varray name="rec_basis" >
    <v>       0.10714276       0.00000000       0.00000000 </v>
    <v>       0.00000000       0.18658572       0.00000000 </v>
    <v>       0.00060270       0.00000000       0.06686436 </v>
   </varray>
  </crystal>
  <varray name="positions" >
   <v>       0.16411200       0.48397600       0.17995900 </v>
   <v>       0.16411200       0.51602400       0.67995900 </v>
   <v>       0.66411200       0.98397600       0.17995900 </v>
   <v>       0.66411200       0.01602400       0.67995900 </v>
   <v>       0.17533200       0.47285200       0.97303200 </v>
   <v>       0.17533200       0.52714800       0.47349600 </v>
   <v>       0.67430600       0.97285200       0.97316500 </v>
   <v>       0.67533200       0.02714800       0.47303200 </v>
   <v>       0.33574700       0.02941400       0.82240100 </v>
   <v>       0.33162900       0.97058600       0.32240100 </v>
   <v>       0.83162900       0.52941400       0.82240100 </v>
   <v>       0.83162900       0.47058600       0.31392600 </v>
   <v>       0.33361900       0.00432000       0.51711500 </v>
   <v>       0.33361900       0.99568000       0.01711500 </v>
   <v>       0.83361900       0.50432000       0.51711500 </v>
   <v>       0.83364800       0.49568000       0.01711500 </v>
   <v>       0.30926400       0.26740800       0.92544800 </v>
   <v>       0.30926400       0.73259200       0.42544800 </v>
   <v>       0.80926400       0.76740800       0.92544800 </v>
   <v>       0.80926400       0.23259200       0.42544800 </v>
   <v>       0.00386100       0.36884200       0.24394900 </v>
   <v>       0.99843900       0.63115800       0.74394900 </v>
   <v>       0.51323000       0.86884200       0.24394900 </v>
   <v>       0.50386100       0.13115800       0.74394900 </v>
   <v>       0.02591400       0.39537700       0.57915900 </v>
   <v>       0.02975900       0.60462300       0.07915900 </v>
   <v>       0.52591400       0.89537700       0.57915900 </v>
   <v>       0.52591400       0.10462300       0.07915900 </v>
   <v>       0.17611800       0.21417000       0.08350500 </v>
   <v>       0.17611800       0.78583000       0.58350500 </v>
   <v>       0.67893700       0.71417000       0.08350500 </v>
   <v>       0.67611800       0.28748100       0.58350500 </v>
   <v>       0.18147400       0.20344500       0.73945400 </v>
   <v>       0.19136500       0.79655500       0.23945400 </v>
   <v>       0.68147400       0.70344500       0.73945400 </v>
   <v>       0.68147400       0.29655500       0.23945400 </v>
   <v>       0.18900300       0.20186000       0.42366300 </v>
   <v>       0.18742900       0.79814000       0.92366300 </v>
   <v>       0.68900300       0.70186000       0.42366300 </v>
   <v>       0.68900300       0.29814000       0.92877400 </v>
   <v>       0.29347700       0.34686800       0.57827500 </v>
   <v>       0.29347700       0.65313200       0.07827500 </v>
   <v>       0.79347700       0.84686800       0.57827500 </v>
   <v>       0.79347700       0.15313200       0.07491300 </v>
   <v>       0.30310600       0.30561100       0.24801900 </v>
   <v>       0.30310600       0.69438900       0.74801900 </v>
   <v>       0.80310600       0.80561100       0.24575400 </v>
   <v>       0.80310600       0.19438900       0.74801900 </v>
   <v>       0.49071400       0.13464800       0.42295500 </v>
   <v>       0.49071400       0.86535200       0.92766300 </v>
   <v>       0.99071400       0.63464800       0.42295500 </v>
   <v>       0.99071400       0.36535200       0.92880800 </v>
  </varray>
 </structure>
</modeling>
