 vasp.5.3.5 31Mar14 (build Aug 29 2014 19:41:47) complex                        
  
 executed on             LinuxIFC date 2019.01.24  01:14:21
 running on    1 total cores
 distrk:  each k-point on    1 cores,    1 groups
 distr:  one band on NCORES_PER_BAND=   1 cores,    1 groups


--------------------------------------------------------------------------------------------------------


 INCAR:
 POTCAR:    PAW_PBE Fe 06Sep2000                  
 POTCAR:    PAW_PBE O 08Apr2002                   
 POTCAR:    PAW_PBE F 08Apr2002                   
 POTCAR:    PAW_PBE Fe 06Sep2000                  
   VRHFIN =Fe:  d7 s1                                                           
   LEXCH  = PE                                                                  
   EATOM  =   594.3153 eV,   43.6809 Ry                                         
                                                                                
   TITEL  = PAW_PBE Fe 06Sep2000                                                
   LULTRA =        F    use ultrasoft PP ?                                      
   IUNSCR =        1    unscreen: 0-lin 1-nonlin 2-no                           
   RPACOR =    2.000    partial core radius                                     
   POMASS =   55.847; ZVAL   =    8.000    mass and valenz                      
   RCORE  =    2.300    outmost cutoff radius                                   
   RWIGS  =    2.460; RWIGS  =    1.302    wigner-seitz radius (au A)           
   ENMAX  =  267.882; ENMIN  =  200.911 eV                                      
   RCLOC  =    1.701    cutoff for local pot                                    
   LCOR   =        T    correct aug charges                                     
   LPAW   =        T    paw PP                                                  
   EAUG   =  511.368                                                            
   DEXC   =    0.000                                                            
   RMAX   =    2.356    core radius for proj-oper                               
   RAUG   =    1.300    factor for augmentation sphere                          
   RDEP   =    2.442    radius for radial grids                                 
   RDEPT  =    1.890    core radius for aug-charge                              
                                                                                
   Atomic configuration                                                         
    9 entries                                                                   
     n  l   j            E        occ.                                          
     1  0  0.50     -6993.8440   2.0000                                         
     2  0  0.50      -814.6047   2.0000                                         
     2  1  1.50      -693.3689   6.0000                                         
     3  0  0.50       -89.4732   2.0000                                         
     3  1  1.50       -55.6373   6.0000                                         
     3  2  2.50        -3.8151   7.0000                                         
     4  0  0.50        -4.2551   1.0000                                         
     4  1  1.50        -3.4015   0.0000                                         
     4  3  2.50        -1.3606   0.0000                                         
   Description                                                                  
     l       E           TYP  RCUT    TYP  RCUT                                 
     2     -3.8151135     23  2.300                                             
     2     -5.1756961     23  2.300                                             
     0     -4.2550963     23  2.300                                             
     0      7.2035603     23  2.300                                             
     1     -2.7211652     23  2.300                                             
     1     18.4316424     23  2.300                                             
  local pseudopotential read in
  partial core-charges read in
  partial kinetic energy density read in
  atomic valenz-charges read in
  non local Contribution for L=           2  read in
    real space projection operators read in
  non local Contribution for L=           2  read in
    real space projection operators read in
  non local Contribution for L=           0  read in
    real space projection operators read in
  non local Contribution for L=           0  read in
    real space projection operators read in
  non local Contribution for L=           1  read in
    real space projection operators read in
  non local Contribution for L=           1  read in
    real space projection operators read in
    PAW grid and wavefunctions read in
 
   number of l-projection  operators is LMAX  =           6
   number of lm-projection operators is LMMAX =          18
 
 POTCAR:    PAW_PBE O 08Apr2002                   
   VRHFIN =O: s2p4                                                              
   LEXCH  = PE                                                                  
   EATOM  =   432.3788 eV,   31.7789 Ry                                         
                                                                                
   TITEL  = PAW_PBE O 08Apr2002                                                 
   LULTRA =        F    use ultrasoft PP ?                                      
   IUNSCR =        1    unscreen: 0-lin 1-nonlin 2-no                           
   RPACOR =    1.200    partial core radius                                     
   POMASS =   16.000; ZVAL   =    6.000    mass and valenz                      
   RCORE  =    1.520    outmost cutoff radius                                   
   RWIGS  =    1.550; RWIGS  =    0.820    wigner-seitz radius (au A)           
   ENMAX  =  400.000; ENMIN  =  300.000 eV                                      
   ICORE  =        2    local potential                                         
   LCOR   =        T    correct aug charges                                     
   LPAW   =        T    paw PP                                                  
   EAUG   =  605.392                                                            
   DEXC   =    0.000                                                            
   RMAX   =    1.553    core radius for proj-oper                               
   RAUG   =    1.300    factor for augmentation sphere                          
   RDEP   =    1.550    radius for radial grids                                 
   RDEPT  =    1.329    core radius for aug-charge                              
                                                                                
   Atomic configuration                                                         
    4 entries                                                                   
     n  l   j            E        occ.                                          
     1  0  0.50      -514.6923   2.0000                                         
     2  0  0.50       -23.9615   2.0000                                         
     2  1  0.50        -9.0305   4.0000                                         
     3  2  1.50        -9.5241   0.0000                                         
   Description                                                                  
     l       E           TYP  RCUT    TYP  RCUT                                 
     0    -23.9615318     23  1.200                                             
     0     -9.5240782     23  1.200                                             
     1     -9.0304911     23  1.520                                             
     1      8.1634956     23  1.520                                             
     2     -9.5240782      7  1.500                                             
  local pseudopotential read in
  partial core-charges read in
  partial kinetic energy density read in
  kinetic energy density of atom read in
  atomic valenz-charges read in
  non local Contribution for L=           0  read in
    real space projection operators read in
  non local Contribution for L=           0  read in
    real space projection operators read in
  non local Contribution for L=           1  read in
    real space projection operators read in
  non local Contribution for L=           1  read in
    real space projection operators read in
    PAW grid and wavefunctions read in
 
   number of l-projection  operators is LMAX  =           4
   number of lm-projection operators is LMMAX =           8
 
 POTCAR:    PAW_PBE F 08Apr2002                   
   VRHFIN =F: s2p5                                                              
   LEXCH  = PE                                                                  
   EATOM  =   659.6475 eV,   48.4827 Ry                                         
                                                                                
   TITEL  = PAW_PBE F 08Apr2002                                                 
   LULTRA =        F    use ultrasoft PP ?                                      
   IUNSCR =        1    unscreen: 0-lin 1-nonlin 2-no                           
   RPACOR =    1.200    partial core radius                                     
   POMASS =   18.998; ZVAL   =    7.000    mass and valenz                      
   RCORE  =    1.520    outmost cutoff radius                                   
   RWIGS  =    1.500; RWIGS  =    0.794    wigner-seitz radius (au A)           
   ENMAX  =  400.000; ENMIN  =  300.000 eV                                      
   ICORE  =        2    local potential                                         
   LCOR   =        T    correct aug charges                                     
   LPAW   =        T    paw PP                                                  
   EAUG   =  613.614                                                            
   RMAX   =    1.555    core radius for proj-oper                               
   RAUG   =    1.300    factor for augmentation sphere                          
   RDEP   =    1.539    radius for radial grids                                 
   RDEPT  =    1.299    core radius for aug-charge                              
                                                                                
   Atomic configuration                                                         
    4 entries                                                                   
     n  l   j            E        occ.                                          
     1  0  0.50      -663.3661   2.0000                                         
     2  0  0.50       -29.8995   2.0000                                         
     2  1  0.50       -11.1114   5.0000                                         
     3  2  1.50       -10.8847   0.0000                                         
   Description                                                                  
     l       E           TYP  RCUT    TYP  RCUT                                 
     0    -29.8995018     23  1.200                                             
     0     -9.5240782     23  1.200                                             
     1    -11.1113914     23  1.520                                             
     1      1.3605826     23  1.520                                             
     2    -10.8846608      7  1.500                                             
  local pseudopotential read in
  partial core-charges read in
  partial kinetic energy density read in
  atomic valenz-charges read in
  non local Contribution for L=           0  read in
    real space projection operators read in
  non local Contribution for L=           0  read in
    real space projection operators read in
  non local Contribution for L=           1  read in
    real space projection operators read in
  non local Contribution for L=           1  read in
    real space projection operators read in
    PAW grid and wavefunctions read in
 
   number of l-projection  operators is LMAX  =           4
   number of lm-projection operators is LMMAX =           8
 
 Optimization of the real space projectors (new method)

 maximal supplied QI-value         = 16.25
 optimisation between [QCUT,QGAM] = [ 10.24, 20.48] = [ 29.35,117.42] Ry 
 Optimized for a Real-space Cutoff    1.51 Angstroem

   l    n(q)    QCUT    max X(q) W(low)/X(q) W(high)/X(q)  e(spline) 
   2      8    10.239    80.901    0.43E-03    0.67E-03    0.20E-06
   2      8    10.239    75.754    0.44E-03    0.68E-03    0.20E-06
   0      9    10.239    58.752    0.81E-04    0.41E-04    0.71E-07
   0      9    10.239    30.679    0.75E-04    0.39E-04    0.65E-07
   1      9    10.239    17.977    0.50E-04    0.16E-03    0.11E-06
   1      9    10.239    13.559    0.39E-04    0.13E-03    0.98E-07
 Optimization of the real space projectors (new method)

 maximal supplied QI-value         = 24.76
 optimisation between [QCUT,QGAM] = [ 10.15, 20.30] = [ 28.85,115.39] Ry 
 Optimized for a Real-space Cutoff    1.38 Angstroem

   l    n(q)    QCUT    max X(q) W(low)/X(q) W(high)/X(q)  e(spline) 
   0      8    10.150    20.381    0.22E-03    0.32E-03    0.29E-06
   0      8    10.150    15.268    0.23E-03    0.35E-03    0.30E-06
   1      8    10.150     5.964    0.46E-03    0.53E-03    0.21E-06
   1      8    10.150     5.382    0.38E-03    0.45E-03    0.19E-06
 Optimization of the real space projectors (new method)

 maximal supplied QI-value         = 24.76
 optimisation between [QCUT,QGAM] = [ 10.15, 20.30] = [ 28.85,115.39] Ry 
 Optimized for a Real-space Cutoff    1.38 Angstroem

   l    n(q)    QCUT    max X(q) W(low)/X(q) W(high)/X(q)  e(spline) 
   0      8    10.150    14.049    0.15E-03    0.22E-03    0.24E-06
   0      8    10.150     8.945    0.21E-03    0.31E-03    0.30E-06
   1      8    10.150     7.086    0.42E-03    0.48E-03    0.23E-06
   1      8    10.150     6.747    0.37E-03    0.43E-03    0.21E-06
  PAW_PBE Fe 06Sep2000                  :
 energy of atom  1       EATOM= -594.3153
 kinetic energy error for atom=    0.0088 (will be added to EATOM!!)
  PAW_PBE O 08Apr2002                   :
 energy of atom  2       EATOM= -432.3788
 kinetic energy error for atom=    0.1156 (will be added to EATOM!!)
  PAW_PBE F 08Apr2002                   :
 energy of atom  3       EATOM= -659.6475
 kinetic energy error for atom=    0.1978 (will be added to EATOM!!)
 
 
 POSCAR: Fe12 O2 F22                             
  positions in direct lattice
  No initial velocities read in
 exchange correlation table for  LEXCH =        8
   RHO(1)=    0.500       N(1)  =     2000
   RHO(2)=  100.500       N(2)  =     4000
 


--------------------------------------------------------------------------------------------------------


 ion  position               nearest neighbor table
   1  0.000  0.167  0.501-  19 2.02  15 2.02  31 2.11  27 2.15  27 2.15  31 2.16
   2  0.000  0.833  0.501-  20 2.02  16 2.02  32 2.14  32 2.14  28 2.15  28 2.15
   3  0.000  0.667  0.001-  21 2.02  17 2.02  33 2.14  33 2.14  29 2.15  29 2.15
   4  0.000  0.333  0.011-  22 1.96  18 2.09  34 2.11  30 2.14  30 2.14  34 2.16
   5  0.500  0.166  0.000-  23 2.01  34 2.05  19 2.12  19 2.13  15 2.13  15 2.14
   6  0.500  0.834  0.000-  24 2.01  33 2.05  20 2.12  20 2.13  16 2.13  16 2.14
   7  0.500  0.666  0.500-  25 2.01  32 2.05  21 2.12  21 2.13  17 2.13  17 2.14
   8  0.500  0.328  0.500-  31 1.94  22 2.12  26 2.12  22 2.13  18 2.13  18 2.14
   9  0.000  0.000  0.012-  13 2.00  23 2.15  24 2.15  23 2.15  24 2.15  35 2.16
  10  0.000  0.500  0.512-  14 2.05  26 2.13  25 2.15  25 2.15  36 2.16  26 2.18
  11  0.500  0.000  0.472-  13 1.97  13 1.98  28 2.03  27 2.03  35 2.22  35 2.22
  12  0.500  0.500  0.972-  14 1.95  14 1.95  29 2.03  30 2.04  36 2.22  36 2.22
  13  0.000  0.000  0.307-  11 1.97  11 1.98   9 2.00
  14  0.000  0.500  0.814-  12 1.95  12 1.95  10 2.05
  15  0.000  0.168  0.203-   1 2.02   5 2.13   5 2.14
  16  0.000  0.832  0.203-   2 2.02   6 2.13   6 2.14
  17  0.000  0.668  0.703-   3 2.02   7 2.13   7 2.14
  18  0.000  0.332  0.703-   4 2.09   8 2.13   8 2.14
  19  0.000  0.168  0.799-   1 2.02   5 2.12   5 2.13
  20  0.000  0.832  0.799-   2 2.02   6 2.12   6 2.13
  21  0.000  0.668  0.299-   3 2.02   7 2.12   7 2.13
  22  0.000  0.332  0.299-   4 1.96   8 2.12   8 2.13
  23  0.500  0.068  0.996-   5 2.01   9 2.15   9 2.15
  24  0.500  0.932  0.996-   6 2.01   9 2.15   9 2.15
  25  0.500  0.568  0.496-   7 2.01  10 2.15  10 2.15
  26  0.510  0.432  0.496-   8 2.12  10 2.13  10 2.18
  27  0.500  0.098  0.506-  11 2.03   1 2.15   1 2.15
  28  0.500  0.902  0.506-  11 2.03   2 2.15   2 2.15
  29  0.500  0.598  0.006-  12 2.03   3 2.15   3 2.15
  30  0.500  0.401  0.002-  12 2.04   4 2.14   4 2.14
  31  0.510  0.234  0.502-   8 1.94   1 2.11   1 2.16
  32  0.500  0.766  0.502-   7 2.05   2 2.14   2 2.14
  33  0.500  0.734  0.002-   6 2.05   3 2.14   3 2.14
  34  0.509  0.266  0.002-   5 2.05   4 2.11   4 2.16
  35  0.000  0.000  0.695-   9 2.16  11 2.22  11 2.22
  36  0.000  0.500  0.195-  10 2.16  12 2.22  12 2.22
 

IMPORTANT INFORMATION: All symmetrisations will be switched off!
NOSYMM: (Re-)initialisation of all symmetry stuff for point group C_1.

 
 
 KPOINTS: Automatic mesh                          

Automatic generation of k-mesh.
Space group operators:
 irot       det(A)        alpha          n_x          n_y          n_z        tau_x        tau_y        tau_z
    1     1.000000     0.000001     1.000000     0.000000     0.000000     0.000000     0.000000     0.000000
 
 Subroutine IBZKPT returns following result:
 ===========================================
 
 Found      8 irreducible k-points:
 
 Following reciprocal coordinates:
            Coordinates               Weight
  0.000000  0.000000  0.000000      1.000000
  0.500000  0.000000 -0.000000      1.000000
  0.000000  0.500000  0.000000      1.000000
  0.500000  0.500000 -0.000000      1.000000
  0.000000  0.000000  0.500000      1.000000
  0.500000  0.000000  0.500000      1.000000
  0.000000  0.500000  0.500000      1.000000
  0.500000  0.500000  0.500000      1.000000
 
 Following cartesian coordinates:
            Coordinates               Weight
  0.000000  0.000000  0.000000      1.000000
  0.153722  0.000000  0.000573      1.000000
  0.000000  0.024332  0.000000      1.000000
  0.153722  0.024332  0.000573      1.000000
  0.000000  0.000000  0.073614      1.000000
  0.153722  0.000000  0.074187      1.000000
  0.000000  0.024332  0.073614      1.000000
  0.153722  0.024332  0.074187      1.000000
 


--------------------------------------------------------------------------------------------------------




 Dimension of arrays:
   k-points           NKPTS =      8   k-points in BZ     NKDIM =      8   number of bands    NBANDS=    157
   number of dos      NEDOS =    301   number of ions     NIONS =     36
   non local maximal  LDIM  =      6   non local SUM 2l+1 LMDIM =     18
   total plane-waves  NPLWV =  62208
   max r-space proj   IRMAX =   2020   max aug-charges    IRDMAX=   5080
   dimension x,y,z NGX =    16 NGY =  108 NGZ =   36
   dimension x,y,z NGXF=    32 NGYF=  216 NGZF=   72
   support grid    NGXF=    32 NGYF=  216 NGZF=   72
   ions per type =              12   2  22
 NGX,Y,Z   is equivalent  to a cutoff of   8.18,  8.74,  8.81 a.u.
 NGXF,Y,Z  is equivalent  to a cutoff of  16.36, 17.47, 17.62 a.u.


 I would recommend the setting:
   dimension x,y,z NGX =    16 NGY =  101 NGZ =   33
 SYSTEM =  tssm                                    
 POSCAR =  Fe12 O2 F22                             

 Startparameter for this run:
   NWRITE =      2    write-flag & timer
   PREC   = normal    normal or accurate (medium, high low for compatibility)
   ISTART =      0    job   : 0-new  1-cont  2-samecut
   ICHARG =      2    charge: 1-file 2-atom 10-const
   ISPIN  =      1    spin polarized calculation?
   LNONCOLLINEAR =      F non collinear calculations
   LSORBIT =      F    spin-orbit coupling
   INIWAV =      1    electr: 0-lowe 1-rand  2-diag
   LASPH  =      F    aspherical Exc in radial PAW
   METAGGA=      F    non-selfconsistent MetaGGA calc.

 Electronic Relaxation 1
   ENCUT  =  400.0 eV  29.40 Ry    5.42 a.u.   5.30 33.51 11.08*2*pi/ulx,y,z
   ENINI  =  400.0     initial cutoff
   ENAUG  =  613.6 eV  augmentation charge cutoff
   NELM   =    300;   NELMIN=  2; NELMDL=-12     # of ELM steps 
   EDIFF  = 0.1E-03   stopping-criterion for ELM
   LREAL  =      T    real-space projection
   NLSPLINE    = F    spline interpolate recip. space projectors
   LCOMPAT=      F    compatible to vasp.4.4
   GGA_COMPAT  = T    GGA compatible to vasp.4.4-vasp.4.6
   LMAXPAW     = -100 max onsite density
   LMAXMIX     =    2 max onsite mixed and CHGCAR
   VOSKOWN=      0    Vosko Wilk Nusair interpolation
   ROPT   =   -0.00050  -0.00050  -0.00050
 Ionic relaxation
   EDIFFG = 0.1E-02   stopping-criterion for IOM
   NSW    =      1    number of steps for IOM
   NBLOCK =      1;   KBLOCK =      1    inner block; outer block 
   IBRION =      1    ionic relax: 0-MD 1-quasi-New 2-CG
   NFREE  =      0    steps in history (QN), initial steepest desc. (CG)
   ISIF   =      2    stress and relaxation
   IWAVPR =     11    prediction:  0-non 1-charg 2-wave 3-comb
   ISYM   =      0    0-nonsym 1-usesym 2-fastsym
   LCORR  =      T    Harris-Foulkes like correction to forces

   POTIM  = 0.5000    time-step for ionic-motion
   TEIN   =    0.0    initial temperature
   TEBEG  =    0.0;   TEEND  =   0.0 temperature during run
   SMASS  =  -3.00    Nose mass-parameter (am)
   estimated Nose-frequenzy (Omega)   =  0.10E-29 period in steps =****** mass=  -0.242E-27a.u.
   SCALEE = 1.0000    scale energy and forces
   NPACO  =    256;   APACO  = 16.0  distance and # of slots for P.C.
   PSTRESS=    0.0 pullay stress

  Mass of Ions in am
   POMASS =  55.85 16.00 19.00
  Ionic Valenz
   ZVAL   =   8.00  6.00  7.00
  Atomic Wigner-Seitz radii
   RWIGS  =  -1.00 -1.00 -1.00
  virtual crystal weights 
   VCA    =   1.00  1.00  1.00
   NELECT =     262.0000    total number of electrons
   NUPDOWN=      -1.0000    fix difference up-down

 DOS related values:
   EMIN   =  10.00;   EMAX   =-10.00  energy-range for DOS
   EFERMI =   0.00
   ISMEAR =     1;   SIGMA  =   0.20  broadening in eV -4-tet -1-fermi 0-gaus

 Electronic relaxation 2 (details)
   IALGO  =     48    algorithm
   LDIAG  =      T    sub-space diagonalisation (order eigenvalues)
   LSUBROT=      F    optimize rotation matrix (better conditioning)
   TURBO    =      0    0=normal 1=particle mesh
   IRESTART =      0    0=no restart 2=restart with 2 vectors
   NREBOOT  =      0    no. of reboots
   NMIN     =      0    reboot dimension
   EREF     =   0.00    reference energy to select bands
   IMIX   =      4    mixing-type and parameters
     AMIX     =   0.40;   BMIX     =  1.00
     AMIX_MAG =   1.60;   BMIX_MAG =  1.00
     AMIN     =   0.01
     WC   =   100.;   INIMIX=   1;  MIXPRE=   1;  MAXMIX= -45

 Intra band minimization:
   WEIMIN = 0.0010     energy-eigenvalue tresh-hold
   EBREAK =  0.16E-06  absolut break condition
   DEPER  =   0.30     relativ break condition  

   TIME   =   0.40     timestep for ELM

  volume/ion in A,a.u.               =      12.61        85.10
  Fermi-wavevector in a.u.,A,eV,Ry     =   1.362994  2.575684 25.276243  1.857751
  Thomas-Fermi vector in A             =   2.489435
 
 Write flags
   LWAVE  =      F    write WAVECAR
   LCHARG =      T    write CHGCAR
   LVTOT  =      F    write LOCPOT, total local potential
   LVHAR  =      F    write LOCPOT, Hartree potential only
   LELF   =      F    write electronic localiz. function (ELF)
   LORBIT =      0    0 simple, 1 ext, 2 COOP (PROOUT)


 Dipole corrections
   LMONO  =      F    monopole corrections only (constant potential shift)
   LDIPOL =      F    correct potential (dipole corrections)
   IDIPOL =      0    1-x, 2-y, 3-z, 4-all directions 
   EPSILON=  1.0000000 bulk dielectric constant

 Exchange correlation treatment:
   GGA     =    --    GGA type
   LEXCH   =     8    internal setting for exchange type
   VOSKOWN=      0    Vosko Wilk Nusair interpolation
   LHFCALC =     F    Hartree Fock is set to
   LHFONE  =     F    Hartree Fock one center treatment
   AEXX    =    0.0000 exact exchange contribution

 Linear response parameters
   LEPSILON=     F    determine dielectric tensor
   LRPA    =     F    only Hartree local field effects (RPA)
   LNABLA  =     F    use nabla operator in PAW spheres
   LVEL    =     F    velocity operator in full k-point grid
   LINTERFAST=   F  fast interpolation
   KINTER  =     0    interpolate to denser k-point grid
   CSHIFT  =0.1000    complex shift for real part using Kramers Kronig
   OMEGAMAX=  -1.0    maximum frequency
   DEG_THRESHOLD= 0.2000000E-02 threshold for treating states as degnerate
   RTIME   =    0.100 relaxation time in fs

 Orbital magnetization related:
   ORBITALMAG=     F  switch on orbital magnetization
   LCHIMAG   =     F  perturbation theory with respect to B field
   DQ        =  0.001000  dq finite difference perturbation B field



--------------------------------------------------------------------------------------------------------


 quasi-Newton-method for relaxation of ions
 charge density and potential will be updated during run
 non-spin polarized calculation
 RMM-DIIS sequential band-by-band
 perform sub-space diagonalisation
    before iterative eigenvector-optimisation
 modified Broyden-mixing scheme, WC =      100.0
 initial mixing is a Kerker type mixing with AMIX =  0.4000 and BMIX =      1.0000
 Hartree-type preconditioning will be used
 using additional bands           26
 real space projection scheme for non local part
 use partial core corrections
 calculate Harris-corrections to forces 
   (improved forces if not selfconsistent)
 use gradient corrections 
 use of overlap-Matrix (Vanderbilt PP)
 Methfessel and Paxton  Order N= 1 SIGMA  =   0.20


--------------------------------------------------------------------------------------------------------


  energy-cutoff  :      400.00
  volume of cell :      453.99
      direct lattice vectors                 reciprocal lattice vectors
     3.252628000  0.000000000  0.000000000     0.307443704  0.000000000  0.001145817
     0.000000000 20.549384000  0.000000000     0.000000000  0.048663259  0.000000000
    -0.025314000  0.000000000  6.792211000     0.000000000  0.000000000  0.147227464

  length of vectors
     3.252628000 20.549384000  6.792258171     0.307445839  0.048663259  0.147227464


 
 k-points in units of 2pi/SCALE and weight: Automatic mesh                          
   0.00000000  0.00000000  0.00000000       0.125
   0.15372185  0.00000000  0.00057291       0.125
   0.00000000  0.02433163  0.00000000       0.125
   0.15372185  0.02433163  0.00057291       0.125
   0.00000000  0.00000000  0.07361373       0.125
   0.15372185  0.00000000  0.07418664       0.125
   0.00000000  0.02433163  0.07361373       0.125
   0.15372185  0.02433163  0.07418664       0.125
 
 k-points in reciprocal lattice and weights: Automatic mesh                          
   0.00000000  0.00000000  0.00000000       0.125
   0.50000000  0.00000000 -0.00000000       0.125
   0.00000000  0.50000000  0.00000000       0.125
   0.50000000  0.50000000 -0.00000000       0.125
   0.00000000  0.00000000  0.50000000       0.125
   0.50000000  0.00000000  0.50000000       0.125
   0.00000000  0.50000000  0.50000000       0.125
   0.50000000  0.50000000  0.50000000       0.125
 
 position of ions in fractional coordinates (direct lattice) 
   0.00000000  0.16671900  0.50139100
   0.00000000  0.83328100  0.50139100
   0.00000000  0.66671900  0.00139100
   0.00000000  0.33328100  0.01097700
   0.50000000  0.16602100  0.00000400
   0.50000000  0.83397900  0.00000400
   0.50000000  0.66602100  0.50000400
   0.50000000  0.32830200  0.50000400
   0.00000000  0.00000000  0.01216200
   0.00000000  0.50000000  0.51216200
   0.50000000  0.00000000  0.47240000
   0.50000000  0.50000000  0.97240000
   0.00000000  0.00000000  0.30734300
   0.00000000  0.50000000  0.81436200
   0.00000000  0.16816900  0.20329900
   0.00000000  0.83183100  0.20329900
   0.00000000  0.66816900  0.70329900
   0.00000000  0.33183100  0.70329900
   0.00000000  0.16838200  0.79934600
   0.00000000  0.83161800  0.79934600
   0.00000000  0.66838200  0.29934600
   0.00000000  0.33161800  0.29934600
   0.50000000  0.06837200  0.99633700
   0.50000000  0.93162800  0.99633700
   0.50000000  0.56837200  0.49633700
   0.50980900  0.43162800  0.49633700
   0.50000000  0.09818400  0.50567900
   0.50000000  0.90181600  0.50567900
   0.50000000  0.59818400  0.00567900
   0.50000000  0.40100900  0.00240800
   0.50961200  0.23406000  0.50152500
   0.50000000  0.76594000  0.50152500
   0.50000000  0.73406000  0.00152500
   0.50932800  0.26594000  0.00152500
   0.00000000  0.00000000  0.69474100
   0.00000000  0.50000000  0.19474100
 
 position of ions in cartesian coordinates  (Angst):
  -0.01269221  3.42597275  3.40555347
  -0.01269221 17.12341125  3.40555347
  -0.00003521 13.70066475  0.00944797
  -0.00027787  6.84871925  0.07455810
   1.62631390  3.41162928  0.00002717
   1.62631390 17.13775472  0.00002717
   1.61365690 13.68632128  3.39613267
   1.61365690  6.74640387  3.39613267
  -0.00030787  0.00000000  0.08260687
  -0.01296487 10.27469200  3.47871237
   1.61435567  0.00000000  3.20864048
   1.60169867 10.27469200  6.60474598
  -0.00778008  0.00000000  2.08753851
  -0.02061476 10.27469200  5.53131853
  -0.00514631  3.45576936  1.38084970
  -0.00514631 17.09361464  1.38084970
  -0.01780331 13.73046136  4.77695520
  -0.01780331  6.81892264  4.77695520
  -0.02023464  3.46014638  5.42932669
  -0.02023464 17.08923762  5.42932669
  -0.00757764 13.73483838  2.03322119
  -0.00757764  6.81454562  2.03322119
   1.60109273  1.40500248  6.76733113
   1.60109273 19.14438152  6.76733113
   1.61374973 11.67969448  3.37122563
   1.64565475  8.86968952  3.37122563
   1.61351324  2.01762072  3.43467847
   1.61351324 18.53176328  3.43467847
   1.62617024 12.29231272  0.03857297
   1.62625304  8.24048793  0.01635564
   1.64488266  4.80978882  3.40646362
   1.61361840 15.73959518  3.40646362
   1.62627540 15.08448082  0.01035812
   1.65661591  5.46490318  0.01035812
  -0.01758667  0.00000000  4.71882746
  -0.00492967 10.27469200  1.32272196
 


--------------------------------------------------------------------------------------------------------


 k-point  1 :   0.0000 0.0000 0.0000  plane waves:    8283
 k-point  2 :   0.5000 0.0000-0.0000  plane waves:    8242
 k-point  3 :   0.0000 0.5000 0.0000  plane waves:    8264
 k-point  4 :   0.5000 0.5000-0.0000  plane waves:    8216
 k-point  5 :   0.0000 0.0000 0.5000  plane waves:    8290
 k-point  6 :   0.5000 0.0000 0.5000  plane waves:    8276
 k-point  7 :   0.0000 0.5000 0.5000  plane waves:    8276
 k-point  8 :   0.5000 0.5000 0.5000  plane waves:    8240

 maximum and minimum number of plane-waves per node :      8290     8216

 maximum number of plane-waves:      8290
 maximum index in each direction: 
   IXMAX=    5   IYMAX=   33   IZMAX=   11
   IXMIN=   -5   IYMIN=  -34   IZMIN=  -11

 WARNING: aliasing errors must be expected set NGX to  22 to avoid them
 WARNING: aliasing errors must be expected set NGY to 136 to avoid them
 WARNING: aliasing errors must be expected set NGZ to  46 to avoid them
 aliasing errors are usually negligible using standard VASP settings
 and one can safely disregard these warnings

 serial   3D FFT for wavefunctions
 parallel 3D FFT for charge:
    minimum data exchange during FFTs selected (reduces bandwidth)


 total amount of memory used by VASP on root node   265136. kBytes
========================================================================

   base      :      30000. kBytes
   nonlr-proj:       7336. kBytes
   fftplans  :      17416. kBytes
   grid      :      35030. kBytes
   one-center:        559. kBytes
   wavefun   :     174795. kBytes
 
     INWAV:  cpu time    0.00: real time    0.00
 Broyden mixing: mesh for mixing (old mesh)
   NGX = 11   NGY = 67   NGZ = 23
  (NGX  = 32   NGY  =216   NGZ  = 72)
  gives a total of  16951 points

 initial charge density was supplied:
 charge density of overlapping atoms calculated
 number of electron     262.0000000 magnetization 
 keeping initial charge density in first step


--------------------------------------------------------------------------------------------------------


 Maximum index for non-local projection operator         1921
 Maximum index for augmentation-charges         4741 (set IRDMAX)


--------------------------------------------------------------------------------------------------------


 First call to EWALD:  gamma=   0.231
 Maximum number of real-space cells 6x 1x 3
 Maximum number of reciprocal cells 1x 7x 2

 FEWALD executed in parallel
    FEWALD:  cpu time    0.00: real time    0.00


----------------------------------------- Iteration    1(   1)  ---------------------------------------


    POTLOK:  cpu time    0.16: real time    0.16
    SETDIJ:  cpu time    0.04: real time    0.04
    EDDIAG:  cpu time    2.33: real time    2.33
  RMM-DIIS:  cpu time    4.36: real time    4.36
    ORTHCH:  cpu time    0.55: real time    0.55
       DOS:  cpu time    0.00: real time    0.00
    --------------------------------------------
      LOOP:  cpu time    7.44: real time    7.44

 eigenvalue-minimisations  :  1256
 total energy-change (2. order) : 0.3224003E+04  (-0.9831011E+04)
 number of electron     262.0000000 magnetization 
 augmentation part      262.0000000 magnetization 

 Free energy of the ion-electron system (eV)
  ---------------------------------------------------
  alpha Z        PSCENC =       943.57652748
  Ewald energy   TEWEN  =    -15987.32530871
  -Hartree energ DENC   =     -6697.18217231
  -exchange      EXHF   =         0.00000000
  -V(xc)+E(xc)   XCENC  =       902.23563281
  PAW double counting   =     19213.82102697   -19422.08171028
  entropy T*S    EENTRO =         0.03308820
  eigenvalues    EBANDS =      1766.82748198
  atomic energy  EATOM  =     22504.09828397
  ---------------------------------------------------
  free energy    TOTEN  =      3224.00285010 eV

  energy without entropy =     3223.96976190  energy(sigma->0) =     3223.99182070


--------------------------------------------------------------------------------------------------------




----------------------------------------- Iteration    1(   2)  ---------------------------------------


    EDDIAG:  cpu time    2.33: real time    2.33
  RMM-DIIS:  cpu time    4.36: real time    4.36
    ORTHCH:  cpu time    0.55: real time    0.55
       DOS:  cpu time    0.00: real time    0.00
    --------------------------------------------
      LOOP:  cpu time    7.25: real time    7.25

 eigenvalue-minimisations  :  1256
 total energy-change (2. order) :-0.2213315E+04  (-0.2489824E+04)
 number of electron     262.0000000 magnetization 
 augmentation part      262.0000000 magnetization 

 Free energy of the ion-electron system (eV)
  ---------------------------------------------------
  alpha Z        PSCENC =       943.57652748
  Ewald energy   TEWEN  =    -15987.32530871
  -Hartree energ DENC   =     -6697.18217231
  -exchange      EXHF   =         0.00000000
  -V(xc)+E(xc)   XCENC  =       902.23563281
  PAW double counting   =     19213.82102697   -19422.08171028
  entropy T*S    EENTRO =        -0.00520057
  eigenvalues    EBANDS =      -446.44939070
  atomic energy  EATOM  =     22504.09828397
  ---------------------------------------------------
  free energy    TOTEN  =      1010.68768865 eV

  energy without entropy =     1010.69288922  energy(sigma->0) =     1010.68942217


--------------------------------------------------------------------------------------------------------




----------------------------------------- Iteration    1(   3)  ---------------------------------------


    EDDIAG:  cpu time    2.33: real time    2.33
  RMM-DIIS:  cpu time    4.36: real time    4.36
    ORTHCH:  cpu time    0.55: real time    0.55
       DOS:  cpu time    0.00: real time    0.00
    --------------------------------------------
      LOOP:  cpu time    7.25: real time    7.25

 eigenvalue-minimisations  :  1256
 total energy-change (2. order) :-0.6641718E+03  (-0.6602791E+03)
 number of electron     262.0000000 magnetization 
 augmentation part      262.0000000 magnetization 

 Free energy of the ion-electron system (eV)
  ---------------------------------------------------
  alpha Z        PSCENC =       943.57652748
  Ewald energy   TEWEN  =    -15987.32530871
  -Hartree energ DENC   =     -6697.18217231
  -exchange      EXHF   =         0.00000000
  -V(xc)+E(xc)   XCENC  =       902.23563281
  PAW double counting   =     19213.82102697   -19422.08171028
  entropy T*S    EENTRO =        -0.05205652
  eigenvalues    EBANDS =     -1110.57438383
  atomic energy  EATOM  =     22504.09828397
  ---------------------------------------------------
  free energy    TOTEN  =       346.51583957 eV

  energy without entropy =      346.56789609  energy(sigma->0) =      346.53319174


--------------------------------------------------------------------------------------------------------




----------------------------------------- Iteration    1(   4)  ---------------------------------------


    EDDIAG:  cpu time    2.33: real time    2.33
  RMM-DIIS:  cpu time    4.73: real time    4.73
    ORTHCH:  cpu time    0.65: real time    0.65
       DOS:  cpu time    0.00: real time    0.00
    --------------------------------------------
      LOOP:  cpu time    7.71: real time    7.72

 eigenvalue-minimisations  :  1256
 total energy-change (2. order) :-0.2752505E+03  (-0.2358883E+03)
 number of electron     262.0000000 magnetization 
 augmentation part      262.0000000 magnetization 

 Free energy of the ion-electron system (eV)
  ---------------------------------------------------
  alpha Z        PSCENC =       943.57652748
  Ewald energy   TEWEN  =    -15987.32530871
  -Hartree energ DENC   =     -6697.18217231
  -exchange      EXHF   =         0.00000000
  -V(xc)+E(xc)   XCENC  =       902.23563281
  PAW double counting   =     19213.82102697   -19422.08171028
  entropy T*S    EENTRO =         0.04178156
  eigenvalues    EBANDS =     -1385.91874112
  atomic energy  EATOM  =     22504.09828397
  ---------------------------------------------------
  free energy    TOTEN  =        71.26532035 eV

  energy without entropy =       71.22353880  energy(sigma->0) =       71.25139317


--------------------------------------------------------------------------------------------------------




----------------------------------------- Iteration    1(   5)  ---------------------------------------


    EDDIAG:  cpu time    2.60: real time    2.60
  RMM-DIIS:  cpu time    5.73: real time    5.73
    ORTHCH:  cpu time    0.61: real time    0.61
       DOS:  cpu time    0.00: real time    0.00
    --------------------------------------------
      LOOP:  cpu time    8.94: real time    8.95

 eigenvalue-minimisations  :  1256
 total energy-change (2. order) :-0.1582482E+03  (-0.1241448E+03)
 number of electron     262.0000000 magnetization 
 augmentation part      262.0000000 magnetization 

 Free energy of the ion-electron system (eV)
  ---------------------------------------------------
  alpha Z        PSCENC =       943.57652748
  Ewald energy   TEWEN  =    -15987.32530871
  -Hartree energ DENC   =     -6697.18217231
  -exchange      EXHF   =         0.00000000
  -V(xc)+E(xc)   XCENC  =       902.23563281
  PAW double counting   =     19213.82102697   -19422.08171028
  entropy T*S    EENTRO =         0.05941241
  eigenvalues    EBANDS =     -1544.18461774
  atomic energy  EATOM  =     22504.09828397
  ---------------------------------------------------
  free energy    TOTEN  =       -86.98292541 eV

  energy without entropy =      -87.04233782  energy(sigma->0) =      -87.00272954


--------------------------------------------------------------------------------------------------------




----------------------------------------- Iteration    1(   6)  ---------------------------------------


    EDDIAG:  cpu time    2.44: real time    2.44
  RMM-DIIS:  cpu time    5.31: real time    5.32
    ORTHCH:  cpu time    0.61: real time    0.61
       DOS:  cpu time    0.00: real time    0.00
    --------------------------------------------
      LOOP:  cpu time    8.37: real time    8.37

 eigenvalue-minimisations  :  1256
 total energy-change (2. order) :-0.7296129E+02  (-0.5501575E+02)
 number of electron     262.0000000 magnetization 
 augmentation part      262.0000000 magnetization 

 Free energy of the ion-electron system (eV)
  ---------------------------------------------------
  alpha Z        PSCENC =       943.57652748
  Ewald energy   TEWEN  =    -15987.32530871
  -Hartree energ DENC   =     -6697.18217231
  -exchange      EXHF   =         0.00000000
  -V(xc)+E(xc)   XCENC  =       902.23563281
  PAW double counting   =     19213.82102697   -19422.08171028
  entropy T*S    EENTRO =         0.09078525
  eigenvalues    EBANDS =     -1617.17728228
  atomic energy  EATOM  =     22504.09828397
  ---------------------------------------------------
  free energy    TOTEN  =      -159.94421710 eV

  energy without entropy =     -160.03500236  energy(sigma->0) =     -159.97447885


--------------------------------------------------------------------------------------------------------




----------------------------------------- Iteration    1(   7)  ---------------------------------------


    EDDIAG:  cpu time    2.43: real time    2.43
  RMM-DIIS:  cpu time    5.09: real time    5.55
    ORTHCH:  cpu time    0.58: real time    0.58
       DOS:  cpu time    0.00: real time    0.00
    --------------------------------------------
      LOOP:  cpu time    8.10: real time    8.56

 eigenvalue-minimisations  :  1256
 total energy-change (2. order) :-0.3675432E+02  (-0.2957481E+02)
 number of electron     262.0000000 magnetization 
 augmentation part      262.0000000 magnetization 

 Free energy of the ion-electron system (eV)
  ---------------------------------------------------
  alpha Z        PSCENC =       943.57652748
  Ewald energy   TEWEN  =    -15987.32530871
  -Hartree energ DENC   =     -6697.18217231
  -exchange      EXHF   =         0.00000000
  -V(xc)+E(xc)   XCENC  =       902.23563281
  PAW double counting   =     19213.82102697   -19422.08171028
  entropy T*S    EENTRO =         0.15666609
  eigenvalues    EBANDS =     -1653.99748760
  atomic energy  EATOM  =     22504.09828397
  ---------------------------------------------------
  free energy    TOTEN  =      -196.69854159 eV

  energy without entropy =     -196.85520768  energy(sigma->0) =     -196.75076362


--------------------------------------------------------------------------------------------------------




----------------------------------------- Iteration    1(   8)  ---------------------------------------


    EDDIAG:  cpu time    2.54: real time    2.86
  RMM-DIIS:  cpu time    5.99: real time    6.13
    ORTHCH:  cpu time    0.61: real time    0.64
       DOS:  cpu time    0.00: real time    0.00
    --------------------------------------------
      LOOP:  cpu time    9.14: real time    9.64

 eigenvalue-minimisations  :  1256
 total energy-change (2. order) :-0.1481115E+02  (-0.1201941E+02)
 number of electron     262.0000000 magnetization 
 augmentation part      262.0000000 magnetization 

 Free energy of the ion-electron system (eV)
  ---------------------------------------------------
  alpha Z        PSCENC =       943.57652748
  Ewald energy   TEWEN  =    -15987.32530871
  -Hartree energ DENC   =     -6697.18217231
  -exchange      EXHF   =         0.00000000
  -V(xc)+E(xc)   XCENC  =       902.23563281
  PAW double counting   =     19213.82102697   -19422.08171028
  entropy T*S    EENTRO =         0.18039273
  eigenvalues    EBANDS =     -1668.83236904
  atomic energy  EATOM  =     22504.09828397
  ---------------------------------------------------
  free energy    TOTEN  =      -211.50969639 eV

  energy without entropy =     -211.69008912  energy(sigma->0) =     -211.56982730


--------------------------------------------------------------------------------------------------------




----------------------------------------- Iteration    1(   9)  ---------------------------------------


    EDDIAG:  cpu time    2.44: real time    3.52
  RMM-DIIS:  cpu time   14.03: real time   18.15
    ORTHCH:  cpu time    0.58: real time    1.16
       DOS:  cpu time    0.00: real time    0.01
    --------------------------------------------
      LOOP:  cpu time   17.06: real time   22.85

 eigenvalue-minimisations  :  4002
 total energy-change (2. order) :-0.1467846E+02  (-0.1346639E+02)
 number of electron     262.0000000 magnetization 
 augmentation part      262.0000000 magnetization 

 Free energy of the ion-electron system (eV)
  ---------------------------------------------------
  alpha Z        PSCENC =       943.57652748
  Ewald energy   TEWEN  =    -15987.32530871
  -Hartree energ DENC   =     -6697.18217231
  -exchange      EXHF   =         0.00000000
  -V(xc)+E(xc)   XCENC  =       902.23563281
  PAW double counting   =     19213.82102697   -19422.08171028
  entropy T*S    EENTRO =         0.20651383
  eigenvalues    EBANDS =     -1683.53695503
  atomic energy  EATOM  =     22504.09828397
  ---------------------------------------------------
  free energy    TOTEN  =      -226.18816129 eV

  energy without entropy =     -226.39467511  energy(sigma->0) =     -226.25699923


--------------------------------------------------------------------------------------------------------




----------------------------------------- Iteration    1(  10)  ---------------------------------------


    EDDIAG:  cpu time    2.48: real time    3.98
  RMM-DIIS:  cpu time   14.50: real time   27.08
    ORTHCH:  cpu time    0.57: real time    1.16
       DOS:  cpu time    0.00: real time    0.00
    --------------------------------------------
      LOOP:  cpu time   17.56: real time   32.22

 eigenvalue-minimisations  :  3985
 total energy-change (2. order) :-0.3058805E+00  (-0.6316642E+00)
 number of electron     262.0000000 magnetization 
 augmentation part      262.0000000 magnetization 

 Free energy of the ion-electron system (eV)
  ---------------------------------------------------
  alpha Z        PSCENC =       943.57652748
  Ewald energy   TEWEN  =    -15987.32530871
  -Hartree energ DENC   =     -6697.18217231
  -exchange      EXHF   =         0.00000000
  -V(xc)+E(xc)   XCENC  =       902.23563281
  PAW double counting   =     19213.82102697   -19422.08171028
  entropy T*S    EENTRO =         0.20419463
  eigenvalues    EBANDS =     -1683.84051635
  atomic energy  EATOM  =     22504.09828397
  ---------------------------------------------------
  free energy    TOTEN  =      -226.49404180 eV

  energy without entropy =     -226.69823643  energy(sigma->0) =     -226.56210668


--------------------------------------------------------------------------------------------------------




----------------------------------------- Iteration    1(  11)  ---------------------------------------


    EDDIAG:  cpu time    2.38: real time    4.69
  RMM-DIIS:  cpu time   12.54: real time   21.65
    ORTHCH:  cpu time    0.57: real time    0.85
       DOS:  cpu time    0.00: real time    0.00
    --------------------------------------------
      LOOP:  cpu time   15.50: real time   27.20

 eigenvalue-minimisations  :  3636
 total energy-change (2. order) :-0.2487056E+00  (-0.2134061E+00)
 number of electron     262.0000000 magnetization 
 augmentation part      262.0000000 magnetization 

 Free energy of the ion-electron system (eV)
  ---------------------------------------------------
  alpha Z        PSCENC =       943.57652748
  Ewald energy   TEWEN  =    -15987.32530871
  -Hartree energ DENC   =     -6697.18217231
  -exchange      EXHF   =         0.00000000
  -V(xc)+E(xc)   XCENC  =       902.23563281
  PAW double counting   =     19213.82102697   -19422.08171028
  entropy T*S    EENTRO =         0.19233258
  eigenvalues    EBANDS =     -1684.07735989
  atomic energy  EATOM  =     22504.09828397
  ---------------------------------------------------
  free energy    TOTEN  =      -226.74274739 eV

  energy without entropy =     -226.93507997  energy(sigma->0) =     -226.80685825


--------------------------------------------------------------------------------------------------------




----------------------------------------- Iteration    1(  12)  ---------------------------------------


    EDDIAG:  cpu time    2.38: real time    4.71
  RMM-DIIS:  cpu time   10.80: real time   20.83
    ORTHCH:  cpu time    0.57: real time    1.14
       DOS:  cpu time    0.00: real time    0.01
    CHARGE:  cpu time    0.94: real time    1.88
    MIXING:  cpu time    0.01: real time    0.02
    --------------------------------------------
      LOOP:  cpu time   14.71: real time   28.59

 eigenvalue-minimisations  :  3057
 total energy-change (2. order) :-0.1019686E+00  (-0.9106535E-01)
 number of electron     262.0000015 magnetization 
 augmentation part       77.5700456 magnetization 

 Broyden mixing:
  rms(total) = 0.44814E+01    rms(broyden)= 0.44660E+01
  rms(prec ) = 0.47530E+01
  weight for this iteration     100.00

 Free energy of the ion-electron system (eV)
  ---------------------------------------------------
  alpha Z        PSCENC =       943.57652748
  Ewald energy   TEWEN  =    -15987.32530871
  -Hartree energ DENC   =     -6697.18217231
  -exchange      EXHF   =         0.00000000
  -V(xc)+E(xc)   XCENC  =       902.23563281
  PAW double counting   =     19213.82102697   -19422.08171028
  entropy T*S    EENTRO =         0.17913891
  eigenvalues    EBANDS =     -1684.16613480
  atomic energy  EATOM  =     22504.09828397
  ---------------------------------------------------
  free energy    TOTEN  =      -226.84471597 eV

  energy without entropy =     -227.02385488  energy(sigma->0) =     -226.90442894


--------------------------------------------------------------------------------------------------------




----------------------------------------- Iteration    1(  13)  ---------------------------------------


    POTLOK:  cpu time    0.16: real time    0.32
    SETDIJ:  cpu time    0.04: real time    0.08
    EDDIAG:  cpu time    2.42: real time    4.77
  RMM-DIIS:  cpu time   10.45: real time   19.67
    ORTHCH:  cpu time    0.58: real time    1.16
       DOS:  cpu time    0.00: real time    0.00
    CHARGE:  cpu time    0.98: real time    1.97
    MIXING:  cpu time    0.01: real time    0.02
    --------------------------------------------
      LOOP:  cpu time   14.64: real time   27.99

 eigenvalue-minimisations  :  2996
 total energy-change (2. order) : 0.1639072E+02  (-0.2439586E+02)
 number of electron     261.9999677 magnetization 
 augmentation part       84.0194538 magnetization 

 Broyden mixing:
  rms(total) = 0.61842E+01    rms(broyden)= 0.61808E+01
  rms(prec ) = 0.68503E+01
  weight for this iteration     100.00

 eigenvalues of (default mixing * dielectric matrix)
  average eigenvalue GAMMA=   0.3546
  0.3546

 Free energy of the ion-electron system (eV)
  ---------------------------------------------------
  alpha Z        PSCENC =       943.57652748
  Ewald energy   TEWEN  =    -15987.32530871
  -Hartree energ DENC   =     -6828.89839666
  -exchange      EXHF   =         0.00000000
  -V(xc)+E(xc)   XCENC  =       916.05775536
  PAW double counting   =     20404.02853376   -20592.44017322
  entropy T*S    EENTRO =        -0.05936443
  eigenvalues    EBANDS =     -1569.49185417
  atomic energy  EATOM  =     22504.09828397
  ---------------------------------------------------
  free energy    TOTEN  =      -210.45399664 eV

  energy without entropy =     -210.39463220  energy(sigma->0) =     -210.43420849


--------------------------------------------------------------------------------------------------------




----------------------------------------- Iteration    1(  14)  ---------------------------------------


    POTLOK:  cpu time    0.16: real time    0.32
    SETDIJ:  cpu time    0.04: real time    0.08
    EDDIAG:  cpu time    2.41: real time    4.68
  RMM-DIIS:  cpu time    9.43: real time   18.73
    ORTHCH:  cpu time    0.60: real time    1.20
       DOS:  cpu time    0.00: real time    0.01
    CHARGE:  cpu time    0.99: real time    1.99
    MIXING:  cpu time    0.01: real time    0.02
    --------------------------------------------
      LOOP:  cpu time   13.64: real time   27.04

 eigenvalue-minimisations  :  2747
 total energy-change (2. order) :-0.4521550E+02  (-0.6797533E+01)
 number of electron     261.9999700 magnetization 
 augmentation part       80.2372774 magnetization 

 Broyden mixing:
  rms(total) = 0.11010E+02    rms(broyden)= 0.11009E+02
  rms(prec ) = 0.12487E+02
  weight for this iteration     100.00

 eigenvalues of (default mixing * dielectric matrix)
  average eigenvalue GAMMA=   0.2420
  0.4066  0.0773

 Free energy of the ion-electron system (eV)
  ---------------------------------------------------
  alpha Z        PSCENC =       943.57652748
  Ewald energy   TEWEN  =    -15987.32530871
  -Hartree energ DENC   =     -6824.54838656
  -exchange      EXHF   =         0.00000000
  -V(xc)+E(xc)   XCENC  =       914.72419830
  PAW double counting   =     20733.63652487   -20931.36027750
  entropy T*S    EENTRO =         0.00382541
  eigenvalues    EBANDS =     -1608.47488172
  atomic energy  EATOM  =     22504.09828397
  ---------------------------------------------------
  free energy    TOTEN  =      -255.66949447 eV

  energy without entropy =     -255.67331988  energy(sigma->0) =     -255.67076961


--------------------------------------------------------------------------------------------------------




----------------------------------------- Iteration    1(  15)  ---------------------------------------


    POTLOK:  cpu time    0.17: real time    0.32
    SETDIJ:  cpu time    0.04: real time    0.08
    EDDIAG:  cpu time    2.49: real time    4.86
  RMM-DIIS:  cpu time   11.03: real time   21.23
    ORTHCH:  cpu time    0.60: real time    1.19
       DOS:  cpu time    0.00: real time    0.01
    CHARGE:  cpu time    0.99: real time    1.97
    MIXING:  cpu time    0.01: real time    0.02
    --------------------------------------------
      LOOP:  cpu time   15.32: real time   29.68

 eigenvalue-minimisations  :  2840
 total energy-change (2. order) : 0.8818615E+01  (-0.1995624E+01)
 number of electron     261.9999669 magnetization 
 augmentation part       80.2921485 magnetization 

 Broyden mixing:
  rms(total) = 0.11059E+02    rms(broyden)= 0.11057E+02
  rms(prec ) = 0.12626E+02
  weight for this iteration     100.00

 eigenvalues of (default mixing * dielectric matrix)
  average eigenvalue GAMMA=   0.1823
  0.4164  0.0652  0.0652

 Free energy of the ion-electron system (eV)
  ---------------------------------------------------
  alpha Z        PSCENC =       943.57652748
  Ewald energy   TEWEN  =    -15987.32530871
  -Hartree energ DENC   =     -6822.69234455
  -exchange      EXHF   =         0.00000000
  -V(xc)+E(xc)   XCENC  =       914.56917925
  PAW double counting   =     20888.26092174   -21089.86224136
  entropy T*S    EENTRO =         0.02580563
  eigenvalues    EBANDS =     -1597.50170328
  atomic energy  EATOM  =     22504.09828397
  ---------------------------------------------------
  free energy    TOTEN  =      -246.85087984 eV

  energy without entropy =     -246.87668547  energy(sigma->0) =     -246.85948171


--------------------------------------------------------------------------------------------------------




----------------------------------------- Iteration    1(  16)  ---------------------------------------


    POTLOK:  cpu time    0.16: real time    0.33
    SETDIJ:  cpu time    0.04: real time    0.08
    EDDIAG:  cpu time    2.45: real time    4.90
  RMM-DIIS:  cpu time    9.74: real time   18.88
    ORTHCH:  cpu time    0.57: real time    1.09
       DOS:  cpu time    0.00: real time    0.00
    CHARGE:  cpu time    0.98: real time    1.96
    MIXING:  cpu time    0.01: real time    0.02
    --------------------------------------------
      LOOP:  cpu time   13.97: real time   27.26

 eigenvalue-minimisations  :  2761
 total energy-change (2. order) : 0.2907633E+02  (-0.7761144E+00)
 number of electron     261.9999763 magnetization 
 augmentation part       80.1313077 magnetization 

 Broyden mixing:
  rms(total) = 0.78030E+01    rms(broyden)= 0.77977E+01
  rms(prec ) = 0.89196E+01
  weight for this iteration     100.00

 eigenvalues of (default mixing * dielectric matrix)
  average eigenvalue GAMMA=   0.1877
  0.4205  0.1429  0.1429  0.0447

 Free energy of the ion-electron system (eV)
  ---------------------------------------------------
  alpha Z        PSCENC =       943.57652748
  Ewald energy   TEWEN  =    -15987.32530871
  -Hartree energ DENC   =     -6823.53074663
  -exchange      EXHF   =         0.00000000
  -V(xc)+E(xc)   XCENC  =       914.63581393
  PAW double counting   =     20962.15073228   -21163.96110298
  entropy T*S    EENTRO =         0.07242740
  eigenvalues    EBANDS =     -1567.49117933
  atomic energy  EATOM  =     22504.09828397
  ---------------------------------------------------
  free energy    TOTEN  =      -217.77455260 eV

  energy without entropy =     -217.84697999  energy(sigma->0) =     -217.79869506


--------------------------------------------------------------------------------------------------------




----------------------------------------- Iteration    1(  17)  ---------------------------------------


    POTLOK:  cpu time    0.16: real time    0.32
    SETDIJ:  cpu time    0.04: real time    0.08
    EDDIAG:  cpu time    2.40: real time    2.90
  RMM-DIIS:  cpu time   10.00: real time   19.89
    ORTHCH:  cpu time    0.60: real time    1.20
       DOS:  cpu time    0.00: real time    0.00
    CHARGE:  cpu time    0.99: real time    1.98
    MIXING:  cpu time    0.01: real time    0.02
    --------------------------------------------
      LOOP:  cpu time   14.20: real time   26.39

 eigenvalue-minimisations  :  2794
 total energy-change (2. order) :-0.1662858E+02  (-0.1606872E+01)
 number of electron     261.9999660 magnetization 
 augmentation part       80.3042486 magnetization 

 Broyden mixing:
  rms(total) = 0.10460E+02    rms(broyden)= 0.10458E+02
  rms(prec ) = 0.12340E+02
  weight for this iteration     100.00

 eigenvalues of (default mixing * dielectric matrix)
  average eigenvalue GAMMA=   0.2162
  0.3743  0.3063  0.3063  0.0471  0.0471

 Free energy of the ion-electron system (eV)
  ---------------------------------------------------
  alpha Z        PSCENC =       943.57652748
  Ewald energy   TEWEN  =    -15987.32530871
  -Hartree energ DENC   =     -6822.15296961
  -exchange      EXHF   =         0.00000000
  -V(xc)+E(xc)   XCENC  =       914.54051381
  PAW double counting   =     21004.53059643   -21209.51420797
  entropy T*S    EENTRO =        -0.02933792
  eigenvalues    EBANDS =     -1582.12723166
  atomic energy  EATOM  =     22504.09828397
  ---------------------------------------------------
  free energy    TOTEN  =      -234.40313419 eV

  energy without entropy =     -234.37379627  energy(sigma->0) =     -234.39335488


--------------------------------------------------------------------------------------------------------




----------------------------------------- Iteration    1(  18)  ---------------------------------------


    POTLOK:  cpu time    0.17: real time    0.34
    SETDIJ:  cpu time    0.04: real time    0.08
    EDDIAG:  cpu time    2.34: real time    4.67
  RMM-DIIS:  cpu time   11.19: real time   21.40
    ORTHCH:  cpu time    0.60: real time    1.20
       DOS:  cpu time    0.00: real time    0.00
    CHARGE:  cpu time    0.85: real time    1.71
    MIXING:  cpu time    0.01: real time    0.02
    --------------------------------------------
      LOOP:  cpu time   15.19: real time   29.42

 eigenvalue-minimisations  :  2991
 total energy-change (2. order) :-0.1045385E+02  (-0.1763502E+01)
 number of electron     261.9999724 magnetization 
 augmentation part       80.5205196 magnetization 

 Broyden mixing:
  rms(total) = 0.95308E+01    rms(broyden)= 0.95279E+01
  rms(prec ) = 0.11649E+02
  weight for this iteration     100.00

 eigenvalues of (default mixing * dielectric matrix)
  average eigenvalue GAMMA=   0.1993
  0.3860  0.3860  0.2630  0.0645  0.0481  0.0481

 Free energy of the ion-electron system (eV)
  ---------------------------------------------------
  alpha Z        PSCENC =       943.57652748
  Ewald energy   TEWEN  =    -15987.32530871
  -Hartree energ DENC   =     -6824.90023711
  -exchange      EXHF   =         0.00000000
  -V(xc)+E(xc)   XCENC  =       914.77384179
  PAW double counting   =     21152.24514744   -21356.80246052
  entropy T*S    EENTRO =         0.07172108
  eigenvalues    EBANDS =     -1590.59450456
  atomic energy  EATOM  =     22504.09828397
  ---------------------------------------------------
  free energy    TOTEN  =      -244.85698915 eV

  energy without entropy =     -244.92871024  energy(sigma->0) =     -244.88089618


--------------------------------------------------------------------------------------------------------




----------------------------------------- Iteration    1(  19)  ---------------------------------------


    POTLOK:  cpu time    0.16: real time    0.32
    SETDIJ:  cpu time    0.04: real time    0.08
    EDDIAG:  cpu time    2.32: real time    4.45
  RMM-DIIS:  cpu time   10.79: real time   21.07
    ORTHCH:  cpu time    0.59: real time    1.20
       DOS:  cpu time    0.00: real time    0.00
    CHARGE:  cpu time    0.85: real time    1.70
    MIXING:  cpu time    0.01: real time    0.02
    --------------------------------------------
      LOOP:  cpu time   14.77: real time   28.85

 eigenvalue-minimisations  :  2906
 total energy-change (2. order) : 0.1780490E+02  (-0.7149581E+00)
 number of electron     261.9999730 magnetization 
 augmentation part       80.4681307 magnetization 

 Broyden mixing:
  rms(total) = 0.96302E+01    rms(broyden)= 0.96277E+01
  rms(prec ) = 0.11474E+02
  weight for this iteration     100.00

 eigenvalues of (default mixing * dielectric matrix)
  average eigenvalue GAMMA=   0.1971
  0.4905  0.4905  0.1406  0.0836  0.0836  0.0454  0.0454

 Free energy of the ion-electron system (eV)
  ---------------------------------------------------
  alpha Z        PSCENC =       943.57652748
  Ewald energy   TEWEN  =    -15987.32530871
  -Hartree energ DENC   =     -6826.31522033
  -exchange      EXHF   =         0.00000000
  -V(xc)+E(xc)   XCENC  =       915.03535639
  PAW double counting   =     21266.19557229   -21473.06311878
  entropy T*S    EENTRO =         0.02033094
  eigenvalues    EBANDS =     -1569.27451519
  atomic energy  EATOM  =     22504.09828397
  ---------------------------------------------------
  free energy    TOTEN  =      -227.05209195 eV

  energy without entropy =     -227.07242289  energy(sigma->0) =     -227.05886893


--------------------------------------------------------------------------------------------------------




----------------------------------------- Iteration    1(  20)  ---------------------------------------


    POTLOK:  cpu time    0.16: real time    0.34
    SETDIJ:  cpu time    0.04: real time    0.08
    EDDIAG:  cpu time    2.32: real time    4.30
  RMM-DIIS:  cpu time   10.24: real time   18.58
    ORTHCH:  cpu time    0.57: real time    1.15
       DOS:  cpu time    0.00: real time    0.00
    CHARGE:  cpu time    0.85: real time    1.43
    MIXING:  cpu time    0.01: real time    0.02
    --------------------------------------------
      LOOP:  cpu time   14.20: real time   25.90

 eigenvalue-minimisations  :  2942
 total energy-change (2. order) : 0.3257245E+01  (-0.4781938E+00)
 number of electron     261.9999748 magnetization 
 augmentation part       80.4548103 magnetization 

 Broyden mixing:
  rms(total) = 0.87673E+01    rms(broyden)= 0.87654E+01
  rms(prec ) = 0.10227E+02
  weight for this iteration     100.00

 eigenvalues of (default mixing * dielectric matrix)
  average eigenvalue GAMMA=   0.2434
  0.7099  0.7099  0.1513  0.1513  0.0966  0.0453  0.0453  0.0371

 Free energy of the ion-electron system (eV)
  ---------------------------------------------------
  alpha Z        PSCENC =       943.57652748
  Ewald energy   TEWEN  =    -15987.32530871
  -Hartree energ DENC   =     -6828.64504985
  -exchange      EXHF   =         0.00000000
  -V(xc)+E(xc)   XCENC  =       915.35689257
  PAW double counting   =     21370.69760179   -21577.67084405
  entropy T*S    EENTRO =         0.07137696
  eigenvalues    EBANDS =     -1563.95432737
  atomic energy  EATOM  =     22504.09828397
  ---------------------------------------------------
  free energy    TOTEN  =      -223.79484722 eV

  energy without entropy =     -223.86622418  energy(sigma->0) =     -223.81863954


--------------------------------------------------------------------------------------------------------




----------------------------------------- Iteration    1(  21)  ---------------------------------------


    POTLOK:  cpu time    0.16: real time    0.32
    SETDIJ:  cpu time    0.04: real time    0.04
    EDDIAG:  cpu time    2.26: real time    3.01
  RMM-DIIS:  cpu time   10.96: real time   20.68
    ORTHCH:  cpu time    0.59: real time    1.19
       DOS:  cpu time    0.00: real time    0.00
    CHARGE:  cpu time    0.85: real time    1.71
    MIXING:  cpu time    0.01: real time    0.02
    --------------------------------------------
      LOOP:  cpu time   14.87: real time   26.97

 eigenvalue-minimisations  :  2993
 total energy-change (2. order) :-0.4444107E+01  (-0.5472077E+00)
 number of electron     261.9999732 magnetization 
 augmentation part       81.3969951 magnetization 

 Broyden mixing:
  rms(total) = 0.80512E+01    rms(broyden)= 0.80488E+01
  rms(prec ) = 0.92220E+01
  weight for this iteration     100.00

 eigenvalues of (default mixing * dielectric matrix)
  average eigenvalue GAMMA=   0.2796
  1.0989  0.7170  0.1695  0.1695  0.1680  0.0642  0.0460  0.0460  0.0371

 Free energy of the ion-electron system (eV)
  ---------------------------------------------------
  alpha Z        PSCENC =       943.57652748
  Ewald energy   TEWEN  =    -15987.32530871
  -Hartree energ DENC   =     -6834.59193746
  -exchange      EXHF   =         0.00000000
  -V(xc)+E(xc)   XCENC  =       916.28658787
  PAW double counting   =     21696.97874421   -21906.41683468
  entropy T*S    EENTRO =         0.01345950
  eigenvalues    EBANDS =     -1560.85847639
  atomic energy  EATOM  =     22504.09828397
  ---------------------------------------------------
  free energy    TOTEN  =      -228.23895421 eV

  energy without entropy =     -228.25241371  energy(sigma->0) =     -228.24344071


--------------------------------------------------------------------------------------------------------




----------------------------------------- Iteration    1(  22)  ---------------------------------------


    POTLOK:  cpu time    0.16: real time    0.33
    SETDIJ:  cpu time    0.04: real time    0.07
    EDDIAG:  cpu time    2.32: real time    4.65
  RMM-DIIS:  cpu time   10.39: real time   20.30
    ORTHCH:  cpu time    0.59: real time    0.99
       DOS:  cpu time    0.00: real time    0.01
    CHARGE:  cpu time    0.85: real time    1.69
    MIXING:  cpu time    0.01: real time    0.02
    --------------------------------------------
      LOOP:  cpu time   14.37: real time   28.06

 eigenvalue-minimisations  :  2799
 total energy-change (2. order) :-0.1695598E+02  (-0.1189099E+01)
 number of electron     261.9999657 magnetization 
 augmentation part       81.3874472 magnetization 

 Broyden mixing:
  rms(total) = 0.10622E+02    rms(broyden)= 0.10620E+02
  rms(prec ) = 0.12532E+02
  weight for this iteration     100.00

 eigenvalues of (default mixing * dielectric matrix)
  average eigenvalue GAMMA=   0.3176
  1.1208  1.1208  0.3324  0.1723  0.1723  0.0719  0.0574  0.0457  0.0457  0.0369

 Free energy of the ion-electron system (eV)
  ---------------------------------------------------
  alpha Z        PSCENC =       943.57652748
  Ewald energy   TEWEN  =    -15987.32530871
  -Hartree energ DENC   =     -6838.44333640
  -exchange      EXHF   =         0.00000000
  -V(xc)+E(xc)   XCENC  =       916.98939561
  PAW double counting   =     21991.49299780   -22203.03309077
  entropy T*S    EENTRO =        -0.01638600
  eigenvalues    EBANDS =     -1572.53401497
  atomic energy  EATOM  =     22504.09828397
  ---------------------------------------------------
  free energy    TOTEN  =      -245.19493198 eV

  energy without entropy =     -245.17854598  energy(sigma->0) =     -245.18946998


--------------------------------------------------------------------------------------------------------




----------------------------------------- Iteration    1(  23)  ---------------------------------------


    POTLOK:  cpu time    0.16: real time    0.33
    SETDIJ:  cpu time    0.04: real time    0.08
    EDDIAG:  cpu time    2.40: real time    4.38
  RMM-DIIS:  cpu time   10.44: real time   20.29
    ORTHCH:  cpu time    0.58: real time    1.16
       DOS:  cpu time    0.00: real time    0.01
    CHARGE:  cpu time    0.94: real time    1.87
    MIXING:  cpu time    0.01: real time    0.02
    --------------------------------------------
      LOOP:  cpu time   14.58: real time   28.14

 eigenvalue-minimisations  :  2888
 total energy-change (2. order) : 0.2417399E+02  (-0.9263736E+00)
 number of electron     261.9999736 magnetization 
 augmentation part       80.6700279 magnetization 

 Broyden mixing:
  rms(total) = 0.81930E+01    rms(broyden)= 0.81902E+01
  rms(prec ) = 0.98122E+01
  weight for this iteration     100.00

 eigenvalues of (default mixing * dielectric matrix)
  average eigenvalue GAMMA=   0.3345
  1.6601  0.8868  0.2687  0.2687  0.1703  0.1703  0.0634  0.0634  0.0456  0.0456
  0.0367

 Free energy of the ion-electron system (eV)
  ---------------------------------------------------
  alpha Z        PSCENC =       943.57652748
  Ewald energy   TEWEN  =    -15987.32530871
  -Hartree energ DENC   =     -6841.93097059
  -exchange      EXHF   =         0.00000000
  -V(xc)+E(xc)   XCENC  =       917.25448560
  PAW double counting   =     22213.54227807   -22427.98090475
  entropy T*S    EENTRO =        -0.05990933
  eigenvalues    EBANDS =     -1542.19542765
  atomic energy  EATOM  =     22504.09828397
  ---------------------------------------------------
  free energy    TOTEN  =      -221.02094591 eV

  energy without entropy =     -220.96103658  energy(sigma->0) =     -221.00097614


--------------------------------------------------------------------------------------------------------




----------------------------------------- Iteration    1(  24)  ---------------------------------------


    POTLOK:  cpu time    0.16: real time    0.33
    SETDIJ:  cpu time    0.04: real time    0.08
    EDDIAG:  cpu time    2.37: real time    4.20
  RMM-DIIS:  cpu time    9.74: real time   18.61
    ORTHCH:  cpu time    0.58: real time    1.16
       DOS:  cpu time    0.00: real time    0.01
    CHARGE:  cpu time    0.94: real time    1.68
    MIXING:  cpu time    0.01: real time    0.02
    --------------------------------------------
      LOOP:  cpu time   13.85: real time   26.09

 eigenvalue-minimisations  :  2802
 total energy-change (2. order) :-0.8584170E+01  (-0.5002080E+00)
 number of electron     261.9999681 magnetization 
 augmentation part       80.8577790 magnetization 

 Broyden mixing:
  rms(total) = 0.87955E+01    rms(broyden)= 0.87937E+01
  rms(prec ) = 0.10361E+02
  weight for this iteration     100.00

 eigenvalues of (default mixing * dielectric matrix)
  average eigenvalue GAMMA=   0.3531
  2.1037  0.7974  0.3389  0.3389  0.1698  0.1698  0.0457  0.0457  0.0694  0.0606
  0.0606  0.0367

 Free energy of the ion-electron system (eV)
  ---------------------------------------------------
  alpha Z        PSCENC =       943.57652748
  Ewald energy   TEWEN  =    -15987.32530871
  -Hartree energ DENC   =     -6843.30866221
  -exchange      EXHF   =         0.00000000
  -V(xc)+E(xc)   XCENC  =       917.56093824
  PAW double counting   =     22409.45317617   -22626.94728442
  entropy T*S    EENTRO =        -0.06458858
  eigenvalues    EBANDS =     -1546.64819815
  atomic energy  EATOM  =     22504.09828397
  ---------------------------------------------------
  free energy    TOTEN  =      -229.60511623 eV

  energy without entropy =     -229.54052765  energy(sigma->0) =     -229.58358671


--------------------------------------------------------------------------------------------------------




----------------------------------------- Iteration    1(  25)  ---------------------------------------


    POTLOK:  cpu time    0.16: real time    0.25
    SETDIJ:  cpu time    0.04: real time    0.04
    EDDIAG:  cpu time    2.38: real time    4.36
  RMM-DIIS:  cpu time    9.69: real time   18.94
    ORTHCH:  cpu time    0.58: real time    1.15
       DOS:  cpu time    0.00: real time    0.01
    CHARGE:  cpu time    0.94: real time    1.87
    MIXING:  cpu time    0.01: real time    0.02
    --------------------------------------------
      LOOP:  cpu time   13.80: real time   26.64

 eigenvalue-minimisations  :  2738
 total energy-change (2. order) : 0.1706116E+02  (-0.4368868E+00)
 number of electron     261.9999687 magnetization 
 augmentation part       80.6743213 magnetization 

 Broyden mixing:
  rms(total) = 0.76195E+01    rms(broyden)= 0.76171E+01
  rms(prec ) = 0.97736E+01
  weight for this iteration     100.00

 eigenvalues of (default mixing * dielectric matrix)
  average eigenvalue GAMMA=   0.3373
  2.1198  0.7965  0.3332  0.3332  0.1693  0.1693  0.1532  0.0456  0.0456  0.0367
  0.0634  0.0634  0.0553

 Free energy of the ion-electron system (eV)
  ---------------------------------------------------
  alpha Z        PSCENC =       943.57652748
  Ewald energy   TEWEN  =    -15987.32530871
  -Hartree energ DENC   =     -6844.95472407
  -exchange      EXHF   =         0.00000000
  -V(xc)+E(xc)   XCENC  =       917.95741124
  PAW double counting   =     22628.30090906   -22847.35230058
  entropy T*S    EENTRO =         0.01564799
  eigenvalues    EBANDS =     -1526.86040020
  atomic energy  EATOM  =     22504.09828397
  ---------------------------------------------------
  free energy    TOTEN  =      -212.54395382 eV

  energy without entropy =     -212.55960182  energy(sigma->0) =     -212.54916982


--------------------------------------------------------------------------------------------------------




----------------------------------------- Iteration    1(  26)  ---------------------------------------


    POTLOK:  cpu time    0.16: real time    0.32
    SETDIJ:  cpu time    0.04: real time    0.08
    EDDIAG:  cpu time    2.38: real time    4.57
  RMM-DIIS:  cpu time    9.74: real time   18.64
    ORTHCH:  cpu time    0.58: real time    1.16
       DOS:  cpu time    0.00: real time    0.00
    CHARGE:  cpu time    0.94: real time    1.88
    MIXING:  cpu time    0.01: real time    0.03
    --------------------------------------------
      LOOP:  cpu time   13.86: real time   26.68

 eigenvalue-minimisations  :  2800
 total energy-change (2. order) :-0.1605276E+01  (-0.2239744E+00)
 number of electron     261.9999712 magnetization 
 augmentation part       80.7952224 magnetization 

 Broyden mixing:
  rms(total) = 0.82461E+01    rms(broyden)= 0.82440E+01
  rms(prec ) = 0.10205E+02
  weight for this iteration     100.00

 eigenvalues of (default mixing * dielectric matrix)
  average eigenvalue GAMMA=   0.3347
  2.0981  0.7632  0.4256  0.4256  0.2864  0.1697  0.1697  0.0635  0.0635  0.0456
  0.0456  0.0544  0.0366  0.0385

 Free energy of the ion-electron system (eV)
  ---------------------------------------------------
  alpha Z        PSCENC =       943.57652748
  Ewald energy   TEWEN  =    -15987.32530871
  -Hartree energ DENC   =     -6842.90841199
  -exchange      EXHF   =         0.00000000
  -V(xc)+E(xc)   XCENC  =       917.81201378
  PAW double counting   =     22635.16194642   -22854.58532849
  entropy T*S    EENTRO =         0.04217191
  eigenvalues    EBANDS =     -1530.02112409
  atomic energy  EATOM  =     22504.09828397
  ---------------------------------------------------
  free energy    TOTEN  =      -214.14922973 eV

  energy without entropy =     -214.19140164  energy(sigma->0) =     -214.16328704


--------------------------------------------------------------------------------------------------------




----------------------------------------- Iteration    1(  27)  ---------------------------------------


    POTLOK:  cpu time    0.16: real time    0.32
    SETDIJ:  cpu time    0.04: real time    0.07
    EDDIAG:  cpu time    2.38: real time    4.77
  RMM-DIIS:  cpu time    9.82: real time   19.63
    ORTHCH:  cpu time    0.58: real time    1.16
       DOS:  cpu time    0.00: real time    0.01
    CHARGE:  cpu time    0.94: real time    1.89
    MIXING:  cpu time    0.01: real time    0.01
    --------------------------------------------
      LOOP:  cpu time   13.94: real time   27.88

 eigenvalue-minimisations  :  2778
 total energy-change (2. order) : 0.1130642E+02  (-0.2601411E+00)
 number of electron     261.9999733 magnetization 
 augmentation part       80.6743803 magnetization 

 Broyden mixing:
  rms(total) = 0.49649E+01    rms(broyden)= 0.49603E+01
  rms(prec ) = 0.60703E+01
  weight for this iteration     100.00

 eigenvalues of (default mixing * dielectric matrix)
  average eigenvalue GAMMA=   0.3193
  2.0444  0.7428  0.4791  0.4791  0.2843  0.1697  0.1697  0.0456  0.0456  0.0710
  0.0633  0.0633  0.0562  0.0365  0.0385

 Free energy of the ion-electron system (eV)
  ---------------------------------------------------
  alpha Z        PSCENC =       943.57652748
  Ewald energy   TEWEN  =    -15987.32530871
  -Hartree energ DENC   =     -6840.01544947
  -exchange      EXHF   =         0.00000000
  -V(xc)+E(xc)   XCENC  =       917.51569210
  PAW double counting   =     22622.40396381   -22841.80647201
  entropy T*S    EENTRO =         0.02634069
  eigenvalues    EBANDS =     -1521.31638636
  atomic energy  EATOM  =     22504.09828397
  ---------------------------------------------------
  free energy    TOTEN  =      -202.84280852 eV

  energy without entropy =     -202.86914921  energy(sigma->0) =     -202.85158875


--------------------------------------------------------------------------------------------------------




----------------------------------------- Iteration    1(  28)  ---------------------------------------


    POTLOK:  cpu time    0.16: real time    0.32
    SETDIJ:  cpu time    0.04: real time    0.08
    EDDIAG:  cpu time    2.40: real time    4.47
  RMM-DIIS:  cpu time   10.15: real time   16.36
    ORTHCH:  cpu time    0.59: real time    1.17
       DOS:  cpu time    0.00: real time    0.00
    CHARGE:  cpu time    0.95: real time    1.91
    MIXING:  cpu time    0.01: real time    0.03
    --------------------------------------------
      LOOP:  cpu time   14.31: real time   24.35

 eigenvalue-minimisations  :  2809
 total energy-change (2. order) : 0.1969973E+01  (-0.1303861E+00)
 number of electron     261.9999740 magnetization 
[...]
     63      -4.1859      2.00000
     64      -4.1521      2.00000
     65      -4.0904      2.00000
     66      -4.0679      2.00000
     67      -3.7430      2.00000
     68      -3.7225      2.00000
     69      -3.6172      2.00000
     70      -3.5101      2.00000
     71      -3.4662      2.00000
     72      -3.4282      2.00000
     73      -3.4220      2.00000
     74      -3.3579      2.00000
     75      -3.3476      2.00000
     76      -3.3264      2.00000
     77      -3.2890      2.00000
     78      -3.2753      2.00000
     79      -3.2409      2.00000
     80      -3.2060      2.00000
     81      -3.1933      2.00000
     82      -3.1431      2.00000
     83      -3.1404      2.00000
     84      -3.0735      2.00000
     85      -3.0363      2.00000
     86      -3.0299      2.00000
     87      -2.9683      2.00000
     88      -2.8308      2.00000
     89      -2.7804      2.00000
     90      -2.7131      2.00000
     91      -2.5817      2.00000
     92      -2.5678      2.00000
     93      -2.4055      2.00000
     94      -2.3884      2.00000
     95      -1.5595      2.00000
     96      -1.5343      2.00000
     97       0.8398      2.00000
     98       0.8769      2.00000
     99       0.9475      2.00004
    100       0.9607      2.00006
    101       0.9971      2.00017
    102       1.0185      2.00030
    103       1.0231      2.00034
    104       1.0337      2.00045
    105       1.0472      2.00064
    106       1.0566      2.00081
    107       1.1418      2.00548
    108       1.1600      2.00780
    109       1.1745      2.01017
    110       1.1794      2.01110
    111       1.3484      2.07049
    112       1.3508      2.07071
    113       1.3882      2.06113
    114       1.3902      2.05977
    115       1.4071      2.04338
    116       1.4088      2.04120
    117       1.4098      2.03991
    118       1.4121      2.03687
    119       1.4140      2.03401
    120       1.4160      2.03111
    121       1.4206      2.02361
    122       1.4209      2.02307
    123       1.4248      2.01610
    124       1.4288      2.00823
    125       1.4746      1.86788
    126       1.4786      1.85066
    127       1.5064      1.70991
    128       1.5099      1.68987
    129       1.5372      1.51117
    130       1.5412      1.48213
    131       1.5804      1.17400
    132       1.5907      1.08755
    133       1.6141      0.88944
    134       1.6164      0.87050
    135       1.6185      0.85288
    136       1.6197      0.84333
    137       1.6244      0.80406
    138       1.6316      0.74468
    139       1.7570      0.03072
    140       1.7703     -0.00200
    141       1.8045     -0.05364
    142       1.8105     -0.05872
    143       1.8123     -0.06001
    144       1.8150     -0.06184
    145       2.4105     -0.00000
    146       2.4181     -0.00000
    147       2.4598     -0.00000
    148       2.4638     -0.00000
    149       2.6851     -0.00000
    150       2.6911     -0.00000
    151       2.7083     -0.00000
    152       2.7088     -0.00000
    153       2.7188     -0.00000
    154       2.7208     -0.00000
    155       2.7605     -0.00000
    156       2.8032     -0.00000
    157       8.9502      0.00000


--------------------------------------------------------------------------------------------------------


 soft charge-density along one line, spin component           1
         0         1         2         3         4         5         6         7         8         9
 total charge-density along one line
 
 pseudopotential strength for first ion, spin component:           1
 -7.680   0.001  -0.006  -0.004  -0.003  -8.159   0.001  -0.006
  0.001  -7.511  -0.002   0.005   0.003   0.001  -7.995  -0.002
 -0.006  -0.002  -7.711   0.001   0.008  -0.006  -0.002  -8.189
 -0.004   0.005   0.001  -7.482   0.001  -0.004   0.005   0.001
 -0.003   0.003   0.008   0.001  -7.459  -0.002   0.003   0.008
 -8.159   0.001  -0.006  -0.004  -0.002  -8.597   0.001  -0.006
  0.001  -7.995  -0.002   0.005   0.003   0.001  -8.439  -0.002
 -0.006  -0.002  -8.189   0.001   0.008  -0.006  -0.002  -8.626
 -0.004   0.005   0.001  -7.968   0.001  -0.004   0.005   0.001
 -0.002   0.003   0.008   0.001  -7.946  -0.002   0.003   0.008
 -0.002   0.001   0.006  -0.000  -0.000  -0.002   0.001   0.006
 -0.003   0.002   0.012  -0.001  -0.000  -0.003   0.002   0.012
  0.000  -0.001  -0.003  -0.000  -0.004   0.000  -0.001  -0.003
 -0.000   0.004  -0.000   0.000   0.000  -0.000   0.004  -0.000
  0.004  -0.000  -0.000  -0.000   0.000   0.004  -0.000  -0.000
  0.000  -0.001  -0.003  -0.000  -0.005   0.000  -0.001  -0.003
 -0.000   0.005  -0.001   0.000   0.000  -0.000   0.005  -0.001
  0.005  -0.000  -0.000  -0.000   0.000   0.005  -0.000  -0.000
 total augmentation occupancy for first ion, spin component:           1
  2.349  -0.005   0.025  -0.027  -0.034  -2.328   0.003  -0.052   0.024   0.008   0.060  -0.011   0.023   0.000  -0.020  -0.004
 -0.005   4.687   0.025  -0.025   0.006   0.004  -2.075  -0.024   0.026  -0.005   0.007   0.000  -0.007  -0.024  -0.000  -0.000
  0.025   0.025   3.016   0.005  -0.087  -0.052  -0.020  -3.183   0.007   0.200  -0.402   0.078   0.000   0.002  -0.015  -0.001
 -0.027  -0.025   0.005   4.830  -0.005   0.018   0.027   0.008  -2.083   0.003   0.011  -0.002   0.000   0.003  -0.001  -0.000
 -0.034   0.006  -0.087  -0.005   4.475   0.007  -0.004   0.198   0.003  -1.736  -0.253   0.041  -0.002   0.002  -0.003  -0.006
 -2.328   0.004  -0.052   0.018   0.007   2.763  -0.002   0.073  -0.021   0.002  -0.067   0.014  -0.029  -0.000   0.018   0.005
  0.003  -2.075  -0.020   0.027  -0.004  -0.002   1.312   0.020  -0.024   0.003  -0.006   0.001   0.005   0.023  -0.000  -0.001
 -0.052  -0.024  -3.183   0.008   0.198   0.073   0.020   3.827  -0.013  -0.255   0.454  -0.093   0.001  -0.001   0.017   0.000
  0.024   0.026   0.007  -2.083   0.003  -0.021  -0.024  -0.013   1.318  -0.002  -0.009   0.002  -0.000  -0.003   0.003   0.000
  0.008  -0.005   0.200   0.003  -1.736   0.002   0.003  -0.255  -0.002   1.010   0.226  -0.046   0.001  -0.001   0.001   0.001
  0.060   0.007  -0.402   0.011  -0.253  -0.067  -0.006   0.454  -0.009   0.226   1.389  -0.263   0.009   0.001  -0.012  -0.002
 -0.011   0.000   0.078  -0.002   0.041   0.014   0.001  -0.093   0.002  -0.046  -0.263   0.056  -0.003  -0.000   0.003   0.001
  0.023  -0.007   0.000   0.000  -0.002  -0.029   0.005   0.001  -0.000   0.001   0.009  -0.003   0.134  -0.000  -0.006  -0.021
  0.000  -0.024   0.002   0.003   0.002  -0.000   0.023  -0.001  -0.003  -0.001   0.001  -0.000  -0.000   0.214  -0.001   0.000
 -0.020  -0.000  -0.015  -0.001  -0.003   0.018  -0.000   0.017   0.003   0.001  -0.012   0.003  -0.006  -0.001   0.165   0.001
 -0.004  -0.000  -0.001  -0.000  -0.006   0.005  -0.001   0.000   0.000   0.001  -0.002   0.001  -0.021   0.000   0.001   0.004
 -0.000   0.009  -0.000   0.001   0.000   0.000  -0.006   0.000   0.000  -0.000  -0.000   0.000   0.000  -0.036   0.000  -0.000
  0.005  -0.000   0.003   0.000   0.001  -0.005   0.000  -0.003  -0.001  -0.000   0.003  -0.001   0.001   0.000  -0.027  -0.000


------------------------ aborting loop because EDIFF is reached ----------------------------------------


    CHARGE:  cpu time    0.95: real time    1.90
    FORLOC:  cpu time    0.08: real time    0.16
    FORNL :  cpu time    4.95: real time    9.90
    STRESS:  cpu time   14.59: real time   28.16
    FORCOR:  cpu time    0.27: real time    0.54
    FORHAR:  cpu time    0.11: real time    0.23
    MIXING:  cpu time    0.06: real time    0.12
    OFIELD:  cpu time    0.00: real time    0.00

  FORCE on cell =-STRESS in cart. coord.  units (eV):
  Direction    XX          YY          ZZ          XY          YZ          ZX
  --------------------------------------------------------------------------------------
  Alpha Z   943.57653   943.57653   943.57653
  Ewald   -4464.01874 -5704.39085 -5818.98204     6.64405    -1.29506    10.87296
  Hartree  2774.65716  2050.39763  1993.34325     3.00654    -0.81341     6.27507
  E(xc)   -1393.28369 -1394.66989 -1395.38974     0.01421     0.00048     0.00748
  Local   -2134.11067  -207.28342   -63.11425    -9.36434     2.12512   -16.92808
  n-local -1298.24472 -1297.71745 -1298.00243     0.12884     0.02098     0.25910
  augment   856.10476   858.95594   868.19784    -0.08824    -0.01695    -0.09303
  Kinetic  4634.34094  4682.28856  4692.91906    -0.41109    -0.03741    -0.02818
  Fock        0.00000     0.00000     0.00000     0.00000     0.00000     0.00000
  -------------------------------------------------------------------------------------
  Total     -80.97843   -68.84295   -77.45178    -0.07003    -0.01624     0.36531
  in kB    -285.78245  -242.95493  -273.33647    -0.24714    -0.05733     1.28923
  external pressure =     -267.36 kB  Pullay stress =        0.00 kB


 VOLUME and BASIS-vectors are now :
 -----------------------------------------------------------------------------
  energy-cutoff  :      400.00
  volume of cell :      453.99
      direct lattice vectors                 reciprocal lattice vectors
     3.252628000  0.000000000  0.000000000     0.307443704  0.000000000  0.001145817
     0.000000000 20.549384000  0.000000000     0.000000000  0.048663259  0.000000000
    -0.025314000  0.000000000  6.792211000     0.000000000  0.000000000  0.147227464

  length of vectors
     3.252628000 20.549384000  6.792258171     0.307445839  0.048663259  0.147227464


 FORCES acting on ions
    electron-ion (+dipol)            ewald-force                    non-local-force                 convergence-correction
 -----------------------------------------------------------------------------------------------
   -.506E+01 0.276E+02 0.305E+01   0.488E+01 -.273E+02 -.299E+01   0.253E+00 0.426E+00 -.246E-01   -.640E-03 -.920E+00 0.885E-03
   0.174E-01 -.181E+02 0.418E+01   -.156E-01 0.182E+02 -.414E+01   -.588E-03 0.355E-01 -.499E-02   0.378E-04 -.123E+00 -.289E-02
   0.160E-01 0.234E+02 0.441E+01   -.146E-01 -.242E+02 -.437E+01   -.955E-03 -.301E-01 -.801E-02   -.332E-04 0.677E+00 -.683E-02
   -.514E+01 -.321E+02 0.234E+02   0.494E+01 0.318E+02 -.234E+02   0.259E+00 -.214E+00 -.795E+00   0.470E-04 0.611E+00 -.151E-01
   0.150E+01 0.179E+02 -.343E+01   -.145E+01 -.172E+02 0.332E+01   0.182E-01 0.527E+00 0.175E+00   -.150E-03 -.102E+01 -.231E-03
   -.120E-01 -.122E+02 -.469E+01   0.129E-01 0.128E+02 0.461E+01   0.167E-03 -.490E+00 0.138E+00   0.313E-04 -.304E+00 -.827E-06
   -.892E-02 0.191E+02 -.502E+01   0.866E-02 -.201E+02 0.493E+01   0.947E-02 0.482E+00 0.139E+00   -.977E-04 0.801E+00 0.284E-02
   0.326E+01 -.623E+02 -.981E+01   -.315E+01 0.618E+02 0.104E+02   0.220E-01 0.977E+00 -.368E+00   0.120E-03 0.674E+00 0.349E-01
   -.133E+00 0.453E+01 0.883E+01   0.121E+00 -.325E+01 -.567E+01   0.659E-02 0.288E-02 -.184E+01   0.483E-04 -.129E+01 0.199E-01
   -.503E+01 0.294E+01 -.876E+00   0.480E+01 -.453E+01 0.358E+01   0.267E+00 0.413E+00 -.145E+01   -.167E-03 0.103E+01 0.268E-01
   -.302E+00 0.496E+01 -.448E+01   0.305E+00 -.346E+01 0.918E+00   -.455E-02 0.195E-02 0.308E+01   -.221E-04 -.151E+01 -.110E-01
   -.233E+00 0.204E+01 -.564E+01   0.240E+00 -.331E+01 0.220E+01   -.475E-02 -.824E-01 0.326E+01   -.842E-04 0.131E+01 -.216E-01
   0.939E+00 0.365E+01 0.423E+02   -.108E+01 -.257E+01 -.446E+02   0.167E+00 0.104E-01 0.164E+01   0.403E-03 -.108E+01 0.692E-01
   0.602E+00 0.545E+00 0.598E+02   -.766E+00 -.161E+01 -.636E+02   0.188E+00 0.165E+00 0.272E+01   0.486E-03 0.918E+00 0.565E-01
   -.185E+01 0.187E+02 -.188E+02   0.200E+01 -.169E+02 0.191E+02   -.138E+00 -.993E+00 -.543E+00   0.242E-04 -.851E+00 -.330E+00
   -.805E+00 -.117E+02 -.216E+02   0.100E+01 0.108E+02 0.212E+02   -.197E+00 0.123E+01 -.670E+00   -.164E-02 -.189E+00 0.495E+00
   -.809E+00 0.175E+02 -.212E+02   0.100E+01 -.171E+02 0.207E+02   -.199E+00 -.125E+01 -.664E+00   0.866E-03 0.668E+00 0.645E+00
   -.229E+01 -.367E+02 -.303E+02   0.241E+01 0.374E+02 0.329E+02   -.111E+00 -.139E+01 -.260E+01   0.198E-02 0.571E+00 -.439E+00
   -.229E+00 0.133E+02 0.185E+02   -.616E-02 -.115E+02 -.191E+02   0.253E+00 -.106E+01 0.825E+00   -.266E-03 -.830E+00 0.329E+00
   0.816E+00 -.859E+01 0.209E+02   -.101E+01 0.771E+01 -.208E+02   0.199E+00 0.120E+01 0.926E+00   0.159E-02 -.200E+00 -.493E+00
   0.816E+00 0.139E+02 0.204E+02   -.101E+01 -.135E+02 -.202E+02   0.199E+00 -.119E+01 0.925E+00   -.846E-03 0.671E+00 -.645E+00
   -.707E+00 -.349E+02 0.642E+01   0.444E+00 0.356E+02 -.497E+01   0.290E+00 -.139E+01 -.121E+01   -.256E-02 0.561E+00 0.521E+00
   0.534E-01 0.120E+02 0.732E+01   -.496E-01 -.122E+02 -.924E+01   -.228E-01 0.102E+01 0.202E+01   0.160E-03 -.128E+01 0.206E-01
   0.189E-01 -.434E+01 0.716E+01   -.251E-01 0.672E+01 -.909E+01   0.224E-02 -.102E+01 0.204E+01   -.882E-04 -.838E+00 0.125E-01
   0.255E+00 0.127E+02 0.502E+01   -.262E+00 -.147E+02 -.708E+01   -.188E-01 0.103E+01 0.221E+01   -.161E-02 0.361E+00 0.154E-01
   0.426E+01 0.361E+01 0.379E+01   -.484E+01 -.683E+01 -.559E+01   0.449E+00 0.245E+01 0.191E+01   0.489E-02 0.118E+01 0.398E-01
   0.307E+00 0.337E+02 -.794E+01   -.290E+00 -.327E+02 0.109E+02   -.353E-01 0.159E+01 -.315E+01   -.369E-02 -.164E+01 0.109E-01
   0.330E-01 -.245E+02 -.759E+01   -.367E-01 0.263E+02 0.106E+02   0.280E-02 -.153E+01 -.317E+01   0.143E-02 -.109E+01 -.203E-01
   0.414E-01 0.284E+02 -.738E+01   -.430E-01 -.299E+02 0.104E+02   0.235E-02 0.158E+01 -.313E+01   0.166E-04 0.918E+00 -.341E-01
   0.456E+00 -.412E+02 0.243E+00   -.454E+00 0.409E+02 0.861E+00   -.223E-01 -.206E+01 -.963E+00   0.192E-02 0.156E+01 -.487E-01
   0.423E+01 0.195E+00 -.256E+01   -.473E+01 -.340E+01 0.277E+01   0.352E+00 0.219E+01 -.256E+00   -.517E-02 0.732E-01 0.706E-02
   0.237E-02 0.189E+02 0.189E+00   -.536E-03 -.209E+02 -.169E+00   -.305E-02 0.143E+01 -.491E-01   -.152E-02 0.108E+01 -.902E-04
   0.829E-03 -.144E+02 0.292E+00   -.560E-03 0.151E+02 -.264E+00   -.157E-03 -.143E+01 -.576E-01   -.101E-04 0.147E+00 -.476E-03
   0.448E+01 0.127E+02 0.815E+01   -.501E+01 -.129E+02 -.938E+01   0.432E+00 0.131E+01 0.139E+01   -.152E-01 -.507E+00 -.244E-01
   -.655E+00 0.416E+01 -.436E+02   0.817E+00 -.292E+01 0.449E+02   -.168E+00 0.196E-01 -.154E+01   -.311E-03 -.126E+01 -.780E-01
   -.113E+01 0.734E+00 -.492E+02   0.127E+01 -.185E+01 0.505E+02   -.143E+00 0.366E-01 -.142E+01   -.507E-03 0.108E+01 -.739E-01
 -----------------------------------------------------------------------------------------------
   -.228E+01 -.399E+01 0.453E+00   0.102E-13 0.199E-12 0.149E-12   0.230E+01 0.402E+01 -.518E+00   -.206E-01 -.245E-01 0.621E-01
 
 
 POSITION                                       TOTAL-FORCE (eV/Angst)
 -----------------------------------------------------------------------------------
     -0.01269      3.42597      3.40555         0.074165     -0.222517      0.037358
     -0.01269     17.12341      3.40555         0.001315      0.077844      0.024074
     -0.00004     13.70066      0.00945         0.000416     -0.078201      0.028252
     -0.00028      6.84872      0.07456         0.058151      0.035248     -0.834013
      1.62631      3.41163      0.00003         0.064634      0.229045      0.060277
      1.62631     17.13775      0.00003         0.001042     -0.251074      0.055220
      1.61366     13.68632      3.39613         0.009101      0.251857      0.052490
      1.61366      6.74640      3.39613         0.129716      1.168866      0.211022
     -0.00031      0.00000      0.08261        -0.005439     -0.005007      1.347829
     -0.01296     10.27469      3.47871         0.041076     -0.143467      1.279252
      1.61436      0.00000      3.20864        -0.001911     -0.007410     -0.497653
      1.60170     10.27469      6.60475         0.002586     -0.041243     -0.201512
     -0.00778      0.00000      2.08754         0.022332      0.008411     -0.598496
     -0.02061     10.27469      5.53132         0.024945      0.020142     -0.976686
     -0.00515      3.45577      1.38085         0.010201     -0.114365     -0.539801
     -0.00515     17.09361      1.38085        -0.004402      0.133817     -0.551391
     -0.01780     13.73046      4.77696        -0.004714     -0.134147     -0.549515
     -0.01780      6.81892      4.77696         0.015523     -0.152507     -0.458215
     -0.02023      3.46015      5.42933         0.017399     -0.108330      0.514917
     -0.02023     17.08924      5.42933         0.004295      0.119642      0.521635
     -0.00758     13.73484      2.03322         0.004009     -0.117946      0.520081
     -0.00758      6.81455      2.03322         0.024196     -0.147942      0.755078
      1.60109      1.40500      6.76733        -0.018868     -0.527080      0.127596
      1.60109     19.14438      6.76733        -0.004057      0.526622      0.129759
      1.61375     11.67969      3.37123        -0.026508     -0.557577      0.155020
      1.64565      8.86969      3.37123        -0.123404      0.412565      0.153311
      1.61351      2.01762      3.43468        -0.021951      0.876320     -0.139311
      1.61351     18.53176      3.43468         0.000474     -0.894666     -0.133704
      1.62617     12.29231      0.03857         0.000716      0.914978     -0.126695
      1.62625      8.24049      0.01636        -0.018337     -0.844025      0.091712
      1.64488      4.80979      3.40646        -0.149160     -0.932674     -0.042392
      1.61362     15.73960      3.40646        -0.002745      0.524923     -0.029061
      1.62628     15.08448      0.01036         0.000089     -0.526871     -0.030684
      1.65662      5.46490      0.01036        -0.120013      0.510564      0.133613
     -0.01759      0.00000      4.71883        -0.005689      0.001830     -0.276005
     -0.00493     10.27469      1.32272         0.000820     -0.005623     -0.213360
 -----------------------------------------------------------------------------------
    total drift:                                0.000484     -0.001644     -0.002517


--------------------------------------------------------------------------------------------------------



  FREE ENERGIE OF THE ION-ELECTRON SYSTEM (eV)
  ---------------------------------------------------
  free  energy   TOTEN  =      -194.55008035 eV

  energy  without entropy=     -194.57675107  energy(sigma->0) =     -194.55897059
 


--------------------------------------------------------------------------------------------------------


    POTLOK:  cpu time    0.22: real time    0.43


--------------------------------------------------------------------------------------------------------


 Quasi-Newton relaxation of ions (Broydens 2nd method)
  g(Force)  = 0.785E+00   g(Stress)= 0.000E+00

 Reset! Starting new Quasi-Newton update for ions 


--------------------------------------------------------------------------------------------------------


     LOOP+:  cpu time  750.69: real time 1338.59
    4ORBIT:  cpu time    0.00: real time    0.00

 total amount of memory used by VASP on root node   265136. kBytes
========================================================================

   base      :      30000. kBytes
   nonlr-proj:       7336. kBytes
   fftplans  :      17416. kBytes
   grid      :      35030. kBytes
   one-center:        559. kBytes
   wavefun   :     174795. kBytes
 
  
  
 General timing and accounting informations for this job:
 ========================================================
  
                  Total CPU time used (sec):      753.802
                            User time (sec):      753.397
                          System time (sec):        0.405
                         Elapsed time (sec):     1342.097
  
                   Maximum memory used (kb):      312492.
                   Average memory used (kb):           0.
  
                          Minor page faults:       155605
                          Major page faults:            0
                 Voluntary context switches:          555
