 running on    1 total cores
 distrk:  each k-point on    1 cores,    1 groups
 distr:  one band on    1 cores,    1 groups
 using from now: INCAR     
 vasp.5.3.5 31Mar14 (build Aug 29 2014 19:41:47) complex                        
  
 POSCAR found type information on POSCAR  Fe O  F 
 POSCAR found :  3 types and      36 ions
 scaLAPACK will be used
 LDA part: xc-table for Pade appr. of Perdew
 POSCAR, INCAR and KPOINTS ok, starting setup
 WARNING: small aliasing (wrap around) errors must be expected
 FFT: planning ...
 WAVECAR not read
 entering main loop
       N       E                     dE             d eps       ncg     rms          rms(c)
RMM:   1     0.322400285010E+04    0.32240E+04   -0.98310E+04  1256   0.143E+03
RMM:   2     0.101068768865E+04   -0.22133E+04   -0.24898E+04  1256   0.412E+02
RMM:   3     0.346515839566E+03   -0.66417E+03   -0.66028E+03  1256   0.263E+02
RMM:   4     0.712653203546E+02   -0.27525E+03   -0.23589E+03  1256   0.259E+02
RMM:   5    -0.869829254075E+02   -0.15825E+03   -0.12414E+03  1256   0.126E+02
RMM:   6    -0.159944217102E+03   -0.72961E+02   -0.55016E+02  1256   0.116E+02
RMM:   7    -0.196698541588E+03   -0.36754E+02   -0.29575E+02  1256   0.561E+01
RMM:   8    -0.211509696388E+03   -0.14811E+02   -0.12019E+02  1256   0.550E+01
RMM:   9    -0.226188161286E+03   -0.14678E+02   -0.13466E+02  4002   0.250E+01
RMM:  10    -0.226494041805E+03   -0.30588E+00   -0.63166E+00  3985   0.398E+00
RMM:  11    -0.226742747387E+03   -0.24871E+00   -0.21341E+00  3636   0.123E+00
RMM:  12    -0.226844715965E+03   -0.10197E+00   -0.91065E-01  3057   0.563E-01    0.448E+01
RMM:  13    -0.210453996636E+03    0.16391E+02   -0.24396E+02  2996   0.503E+01    0.618E+01
RMM:  14    -0.255669494471E+03   -0.45215E+02   -0.67975E+01  2747   0.279E+01    0.110E+02
RMM:  15    -0.246850879838E+03    0.88186E+01   -0.19956E+01  2840   0.140E+01    0.111E+02
RMM:  16    -0.217774552596E+03    0.29076E+02   -0.77611E+00  2761   0.906E+00    0.780E+01
RMM:  17    -0.234403134185E+03   -0.16629E+02   -0.16069E+01  2794   0.106E+01    0.105E+02
RMM:  18    -0.244856989153E+03   -0.10454E+02   -0.17635E+01  2991   0.112E+01    0.953E+01
RMM:  19    -0.227052091953E+03    0.17805E+02   -0.71496E+00  2906   0.834E+00    0.963E+01
RMM:  20    -0.223794847219E+03    0.32572E+01   -0.47819E+00  2942   0.592E+00    0.877E+01
RMM:  21    -0.228238954210E+03   -0.44441E+01   -0.54721E+00  2993   0.602E+00    0.805E+01
RMM:  22    -0.245194931981E+03   -0.16956E+02   -0.11891E+01  2799   0.987E+00    0.106E+02
RMM:  23    -0.221020945913E+03    0.24174E+02   -0.92637E+00  2888   0.994E+00    0.819E+01
RMM:  24    -0.229605116233E+03   -0.85842E+01   -0.50021E+00  2802   0.667E+00    0.880E+01
RMM:  25    -0.212543953825E+03    0.17061E+02   -0.43689E+00  2738   0.700E+00    0.762E+01
RMM:  26    -0.214149229735E+03   -0.16053E+01   -0.22397E+00  2800   0.464E+00    0.825E+01
RMM:  27    -0.202842808516E+03    0.11306E+02   -0.26014E+00  2778   0.516E+00    0.496E+01
RMM:  28    -0.200872835996E+03    0.19700E+01   -0.13039E+00  2809   0.402E+00    0.505E+01
RMM:  29    -0.199036556398E+03    0.18363E+01   -0.96380E-01  2873   0.317E+00    0.451E+01
RMM:  30    -0.196841438395E+03    0.21951E+01   -0.43976E-01  2820   0.226E+00    0.316E+01
RMM:  31    -0.196033550462E+03    0.80789E+00   -0.10460E-01  2770   0.125E+00    0.261E+01
RMM:  32    -0.195968742972E+03    0.64807E-01   -0.26674E-02  2977   0.574E-01    0.272E+01
RMM:  33    -0.195730665843E+03    0.23808E+00   -0.25202E-02  2972   0.510E-01    0.242E+01
RMM:  34    -0.195535310609E+03    0.19536E+00   -0.25936E-02  3165   0.476E-01    0.237E+01
RMM:  35    -0.195062055485E+03    0.47326E+00   -0.16822E-01  3068   0.116E+00    0.160E+01
RMM:  36    -0.194809484605E+03    0.25257E+00   -0.78753E-02  2932   0.986E-01    0.122E+01
RMM:  37    -0.194682780384E+03    0.12670E+00   -0.46880E-02  3023   0.687E-01    0.905E+00
RMM:  38    -0.194615360676E+03    0.67420E-01   -0.41531E-02  2883   0.700E-01    0.867E+00
RMM:  39    -0.194575076691E+03    0.40284E-01   -0.21195E-02  2926   0.515E-01    0.611E+00
RMM:  40    -0.194573903190E+03    0.11735E-02   -0.19960E-02  2911   0.452E-01    0.553E+00
RMM:  41    -0.194563021509E+03    0.10882E-01   -0.83697E-03  2836   0.329E-01    0.422E+00
RMM:  42    -0.194572212868E+03   -0.91914E-02   -0.11404E-02  3063   0.336E-01    0.414E+00
RMM:  43    -0.194566318046E+03    0.58948E-02   -0.46309E-03  2673   0.229E-01    0.357E+00
RMM:  44    -0.194562117041E+03    0.42010E-02   -0.19130E-03  2357   0.125E-01    0.323E+00
RMM:  45    -0.194560182766E+03    0.19343E-02   -0.14423E-03  2360   0.112E-01    0.296E+00
RMM:  46    -0.194554686863E+03    0.54959E-02   -0.57972E-04  1906   0.818E-02    0.239E+00
RMM:  47    -0.194555105651E+03   -0.41879E-03   -0.50746E-04  1842   0.700E-02    0.236E+00
RMM:  48    -0.194552132638E+03    0.29730E-02   -0.38201E-04  1679   0.643E-02    0.185E+00
RMM:  49    -0.194551444134E+03    0.68850E-03   -0.16053E-04  1389   0.491E-02    0.166E+00
RMM:  50    -0.194549677400E+03    0.17667E-02   -0.37850E-04  1768   0.614E-02    0.983E-01
RMM:  51    -0.194549569018E+03    0.10838E-03   -0.73709E-05  1306   0.414E-02    0.949E-01
RMM:  52    -0.194549355798E+03    0.21322E-03   -0.91317E-05  1302   0.317E-02    0.772E-01
RMM:  53    -0.194549614864E+03   -0.25907E-03   -0.11053E-04  1352   0.360E-02    0.618E-01
RMM:  54    -0.194549816717E+03   -0.20185E-03   -0.86819E-05  1306   0.342E-02    0.471E-01
RMM:  55    -0.194550024016E+03   -0.20730E-03   -0.56553E-05  1285   0.326E-02    0.395E-01
RMM:  56    -0.194550080348E+03   -0.56333E-04   -0.19835E-05  1256   0.190E-02
   1 F= -.19455008E+03 E0= -.19455897E+03  d E =-.194550E+03
 BRION: g(F)=  0.785E+00 g(S)=  0.000E+00
