<?xml version="1.0" encoding="ISO-8859-1"?>
<modeling>
 <generator>
  <i name="program" type="string">vasp </i>
  <i name="version" type="string">5.3.5  </i>
  <i name="subversion" type="string">31Mar14 (build Aug 29 2014 19:41:47) complex                          parallel </i>
  <i name="platform" type="string">LinuxIFC </i>
  <i name="date" type="string">2019 01 24 </i>
  <i name="time" type="string">01:14:21 </i>
 </generator>
 <incar>
  <i type="string" name="SYSTEM"> tssm</i>
  <i type="int" name="ISTART">     0</i>
  <i type="string" name="PREC">normal</i>
  <i type="string" name="ALGO"> VeryFast</i>
  <i type="int" name="ISPIN">     1</i>
  <i name="AMIN">      0.01000000</i>
  <i type="int" name="ICHARG">     2</i>
  <i type="int" name="NELM">   300</i>
  <i type="int" name="IBRION">     1</i>
  <i name="EDIFF">      0.00010000</i>
  <i name="EDIFFG">      0.00100000</i>
  <i type="int" name="NSW">     1</i>
  <i type="int" name="ISIF">     2</i>
  <i type="int" name="ISYM">     0</i>
  <i name="ENCUT">    400.00000000</i>
  <i type="string" name="LREAL"> Auto</i>
  <i type="int" name="ISMEAR">     1</i>
  <i name="SIGMA">      0.20000000</i>
  <i type="logical" name="LWAVE"> F  </i>
  <i type="int" name="NELM">   300</i>
 </incar>
 <kpoints>
  <generation param="Gamma">
   <v type="int" name="divisions">       2        2        2 </v>
   <v name="usershift">      0.00000000       0.00000000       0.00000000 </v>
   <v name="genvec1">      0.50000000       0.00000000       0.00000000 </v>
   <v name="genvec2">      0.00000000       0.50000000       0.00000000 </v>
   <v name="genvec3">      0.00000000       0.00000000       0.50000000 </v>
   <v name="shift">      0.00000000       0.00000000       0.00000000 </v>
  </generation>
  <varray name="kpointlist" >
   <v>       0.00000000       0.00000000       0.00000000 </v>
   <v>       0.50000000       0.00000000      -0.00000000 </v>
   <v>       0.00000000       0.50000000       0.00000000 </v>
   <v>       0.50000000       0.50000000      -0.00000000 </v>
   <v>       0.00000000       0.00000000       0.50000000 </v>
   <v>       0.50000000       0.00000000       0.50000000 </v>
   <v>       0.00000000       0.50000000       0.50000000 </v>
   <v>       0.50000000       0.50000000       0.50000000 </v>
  </varray>
  <varray name="weights" >
   <v>       0.12500000 </v>
   <v>       0.12500000 </v>
   <v>       0.12500000 </v>
   <v>       0.12500000 </v>
   <v>       0.12500000 </v>
   <v>       0.12500000 </v>
   <v>       0.12500000 </v>
   <v>       0.12500000 </v>
  </varray>
 </kpoints>
 <parameters>
  <separator name="general" >
   <i type="string" name="SYSTEM">tssm</i>
   <i type="logical" name="LCOMPAT"> F  </i>
  </separator>
  <separator name="electronic" >
   <i type="string" name="PREC">normal</i>
   <i name="ENMAX">    400.00000000</i>
   <i name="ENAUG">    613.61400000</i>
   <i name="EDIFF">      0.00010000</i>
   <i type="int" name="IALGO">    48</i>
   <i type="int" name="IWAVPR">    11</i>
   <i type="int" name="NBANDS">   157</i>
   <i name="NELECT">    262.00000000</i>
   <i type="int" name="TURBO">     0</i>
   <i type="int" name="IRESTART">     0</i>
   <i type="int" name="NREBOOT">     0</i>
   <i type="int" name="NMIN">     0</i>
   <i name="EREF">      0.00000000</i>
   <separator name="electronic smearing" >
    <i type="int" name="ISMEAR">     1</i>
    <i name="SIGMA">      0.20000000</i>
    <i name="KSPACING">      0.50000000</i>
    <i type="logical" name="KGAMMA"> T  </i>
   </separator>
   <separator name="electronic projectors" >
    <i type="logical" name="LREAL"> T  </i>
    <v name="ROPT">     -0.00050000     -0.00050000     -0.00050000</v>
    <i type="int" name="LMAXPAW">  -100</i>
    <i type="int" name="LMAXMIX">     2</i>
    <i type="logical" name="NLSPLINE"> F  </i>
   </separator>
   <separator name="electronic startup" >
    <i type="int" name="ISTART">     0</i>
    <i type="int" name="ICHARG">     2</i>
    <i type="int" name="INIWAV">     1</i>
   </separator>
   <separator name="electronic spin" >
    <i type="int" name="ISPIN">     1</i>
    <i type="logical" name="LNONCOLLINEAR"> F  </i>
    <v name="MAGMOM">      1.00000000      1.00000000      1.00000000      1.00000000      1.00000000      1.00000000      1.00000000      1.00000000      1.00000000      1.00000000      1.00000000      1.00000000      1.00000000      1.00000000      1.00000000      1.00000000      1.00000000      1.00000000      1.00000000      1.00000000
      1.00000000      1.00000000      1.00000000      1.00000000      1.00000000      1.00000000      1.00000000      1.00000000      1.00000000      1.00000000      1.00000000      1.00000000      1.00000000      1.00000000      1.00000000      1.00000000</v>
    <i name="NUPDOWN">     -1.00000000</i>
    <i type="logical" name="LSORBIT"> F  </i>
    <v name="SAXIS">      0.00000000      0.00000000      1.00000000</v>
    <i type="logical" name="LSPIRAL"> F  </i>
    <v name="QSPIRAL">      0.00000000      0.00000000      0.00000000</v>
    <i type="logical" name="LZEROZ"> F  </i>
   </separator>
   <separator name="electronic exchange-correlation" >
    <i type="logical" name="LASPH"> F  </i>
    <i type="logical" name="LMETAGGA"> F  </i>
   </separator>
   <separator name="electronic convergence" >
    <i type="int" name="NELM">   300</i>
    <i type="int" name="NELMDL">   -12</i>
    <i type="int" name="NELMIN">     2</i>
    <i name="ENINI">    400.00000000</i>
    <separator name="electronic convergence detail" >
     <i type="logical" name="LDIAG"> T  </i>
     <i type="logical" name="LSUBROT"> F  </i>
     <i name="WEIMIN">      0.00100000</i>
     <i name="EBREAK">      0.00000016</i>
     <i name="DEPER">      0.30000000</i>
     <i type="int" name="NRMM">     4</i>
     <i name="TIME">      0.40000000</i>
    </separator>
   </separator>
   <separator name="electronic mixer" >
    <i name="AMIX">      0.40000000</i>
    <i name="BMIX">      1.00000000</i>
    <i name="AMIN">      0.01000000</i>
    <i name="AMIX_MAG">      1.60000000</i>
    <i name="BMIX_MAG">      1.00000000</i>
    <separator name="electronic mixer details" >
     <i type="int" name="IMIX">     4</i>
     <i type="int" name="MAXMIX">   -45</i>
     <i name="WC">    100.00000000</i>
     <i type="int" name="INIMIX">     1</i>
     <i type="int" name="MIXPRE">     1</i>
     <i type="int" name="MREMOVE">     5</i>
    </separator>
   </separator>
   <separator name="electronic dipolcorrection" >
    <i type="logical" name="LDIPOL"> F  </i>
    <i type="logical" name="LMONO"> F  </i>
    <i type="int" name="IDIPOL">     0</i>
    <i name="EPSILON">      1.00000000</i>
    <v name="DIPOL">   -100.00000000   -100.00000000   -100.00000000</v>
    <i name="EFIELD">      0.00000000</i>
   </separator>
  </separator>
  <separator name="grids" >
   <i type="int" name="NGX">    16</i>
   <i type="int" name="NGY">   108</i>
   <i type="int" name="NGZ">    36</i>
   <i type="int" name="NGXF">    32</i>
   <i type="int" name="NGYF">   216</i>
   <i type="int" name="NGZF">    72</i>
   <i type="logical" name="ADDGRID"> F  </i>
  </separator>
  <separator name="ionic" >
   <i type="int" name="NSW">     1</i>
   <i type="int" name="IBRION">     1</i>
   <i type="int" name="ISIF">     2</i>
   <i name="PSTRESS">      0.00000000</i>
   <i name="EDIFFG">      0.00100000</i>
   <i type="int" name="NFREE">     0</i>
   <i name="POTIM">      0.50000000</i>
   <i name="SMASS">     -3.00000000</i>
   <i name="SCALEE">      1.00000000</i>
  </separator>
  <separator name="ionic md" >
   <i name="TEBEG">      0.00010000</i>
   <i name="TEEND">      0.00010000</i>
   <i type="int" name="NBLOCK">     1</i>
   <i type="int" name="KBLOCK">     1</i>
   <i type="int" name="NPACO">   256</i>
   <i name="APACO">     16.00000000</i>
  </separator>
  <separator name="symmetry" >
   <i type="int" name="ISYM">     0</i>
   <i name="SYMPREC">      0.00001000</i>
  </separator>
  <separator name="dos" >
   <i type="logical" name="LORBIT"> F  </i>
   <v name="RWIGS">     -1.00000000     -1.00000000     -1.00000000</v>
   <i type="int" name="NEDOS">   301</i>
   <i name="EMIN">     10.00000000</i>
   <i name="EMAX">    -10.00000000</i>
   <i name="EFERMI">      0.00000000</i>
  </separator>
  <separator name="writing" >
   <i type="int" name="NWRITE">     2</i>
   <i type="logical" name="LWAVE"> F  </i>
   <i type="logical" name="LCHARG"> T  </i>
   <i type="logical" name="LPARD"> F  </i>
   <i type="logical" name="LVTOT"> F  </i>
   <i type="logical" name="LVHAR"> F  </i>
   <i type="logical" name="LELF"> F  </i>
   <i type="logical" name="LOPTICS"> F  </i>
   <v name="STM">      0.00000000      0.00000000      0.00000000      0.00000000      0.00000000      0.00000000      0.00000000</v>
  </separator>
  <separator name="performance" >
   <i type="int" name="NPAR">     1</i>
   <i type="int" name="NSIM">     4</i>
   <i type="int" name="NBLK">    -1</i>
   <i type="logical" name="LPLANE"> T  </i>
   <i type="logical" name="LSCALAPACK"> T  </i>
   <i type="logical" name="LSCAAWARE"> F  </i>
   <i type="logical" name="LSCALU"> F  </i>
   <i type="logical" name="LASYNC"> F  </i>
   <i type="logical" name="LORBITALREAL"> F  </i>
  </separator>
  <separator name="miscellaneous" >
   <i type="int" name="IDIOT">     3</i>
   <i type="logical" name="LMUSIC"> F  </i>
   <v name="POMASS">     55.84700000     16.00000000     18.99800000</v>
   <v name="DARWINR">      0.00000000      0.00000000      0.00000000</v>
   <v name="DARWINV">      1.00000000      1.00000000      1.00000000</v>
   <i type="logical" name="LCORR"> T  </i>
  </separator>
  <i type="logical" name="GGA_COMPAT"> T  </i>
  <i type="logical" name="LBERRY"> F  </i>
  <i type="int" name="ICORELEVEL">     0</i>
  <i type="logical" name="LDAU"> F  </i>
  <i type="int" name="I_CONSTRAINED_M">     0</i>
  <separator name="electronic exchange-correlation" >
   <i type="string" name="GGA">--</i>
   <i type="int" name="VOSKOWN">     0</i>
   <i type="logical" name="LHFCALC"> F  </i>
   <i type="string" name="PRECFOCK"></i>
   <i type="logical" name="LSYMGRAD"> F  </i>
   <i type="logical" name="LHFONE"> F  </i>
   <i type="logical" name="LRHFCALC"> F  </i>
   <i type="logical" name="LTHOMAS"> F  </i>
   <i type="logical" name="LMODELHF"> F  </i>
   <i name="ENCUT4O">     -1.00000000</i>
   <i type="int" name="EXXOEP">     0</i>
   <i type="int" name="FOURORBIT">     0</i>
   <i name="AEXX">      0.00000000</i>
   <i name="HFALPHA">      0.00000000</i>
   <i name="MCALPHA">      0.00000000</i>
   <i name="ALDAX">      1.00000000</i>
   <i name="AGGAX">      1.00000000</i>
   <i name="ALDAC">      1.00000000</i>
   <i name="AGGAC">      1.00000000</i>
   <i type="int" name="NKREDX">     1</i>
   <i type="int" name="NKREDY">     1</i>
   <i type="int" name="NKREDZ">     1</i>
   <i type="logical" name="SHIFTRED"> F  </i>
   <i type="logical" name="ODDONLY"> F  </i>
   <i type="logical" name="EVENONLY"> F  </i>
   <i type="int" name="LMAXFOCK">     0</i>
   <i type="int" name="NMAXFOCKAE">     0</i>
   <i type="logical" name="LFOCKAEDFT"> F  </i>
   <i name="HFSCREEN">      0.00000000</i>
   <i name="HFSCREENC">      0.00000000</i>
   <i type="int" name="NBANDSGWLOW">     0</i>
  </separator>
  <separator name="vdW DFT" >
   <i type="logical" name="LUSE_VDW"> F  </i>
   <i name="Zab_VDW">     -0.84910000</i>
   <i name="PARAM1">      0.12340000</i>
   <i name="PARAM2">      1.00000000</i>
   <i name="PARAM3">      0.00000000</i>
  </separator>
  <separator name="model GW" >
   <i type="int" name="MODEL_GW">     0</i>
   <i name="MODEL_EPS0">      7.56646665</i>
   <i name="MODEL_ALPHA">      1.00000000</i>
  </separator>
  <separator name="linear response parameters" >
   <i type="logical" name="LEPSILON"> F  </i>
   <i type="logical" name="LRPA"> F  </i>
   <i type="logical" name="LNABLA"> F  </i>
   <i type="logical" name="LVEL"> F  </i>
   <i type="int" name="KINTER">     0</i>
   <i name="CSHIFT">      0.10000000</i>
   <i name="OMEGAMAX">     -1.00000000</i>
   <i name="DEG_THRESHOLD">      0.00200000</i>
  </separator>
  <separator name="orbital magnetization" >
   <i type="logical" name="NUCIND"> F  </i>
   <v name="MAGPOS">      0.00000000      0.00000000      0.00000000</v>
   <i type="logical" name="LNICSALL"> T  </i>
   <i type="logical" name="ORBITALMAG"> F  </i>
   <i type="logical" name="LMAGBLOCH"> F  </i>
   <i type="logical" name="LCHIMAG"> F  </i>
   <i type="logical" name="LGAUGE"> T  </i>
   <i type="int" name="MAGATOM">     0</i>
   <v name="MAGDIPOL">      0.00000000      0.00000000      0.00000000</v>
   <v name="AVECCONST">      0.00000000      0.00000000      0.00000000</v>
  </separator>
  <separator name="response functions" >
   <i type="logical" name="LADDER"> F  </i>
   <i type="logical" name="LFXC"> F  </i>
   <i type="logical" name="LHARTREE"> T  </i>
   <i type="int" name="IBSE">     0</i>
   <i type="logical" name="LTCTE"> F  </i>
   <i type="logical" name="LTETE"> F  </i>
   <i type="logical" name="LTRIPLET"> F  </i>
   <i type="logical" name="LFXCEPS"> F  </i>
   <i type="logical" name="LFXHEG"> F  </i>
   <i type="logical" name="L2ORDER"> F  </i>
   <i type="logical" name="LUSEW"> F  </i>
   <i name="ENCUTGW">     -2.00000000</i>
   <i name="ENCUTGWSOFT">     -2.00000000</i>
   <i name="ENCUTLF">     -1.00000000</i>
   <i type="int" name="LMAXMP2">    -1</i>
   <i name="SCISSOR">      0.00000000</i>
   <i type="int" name="NOMEGA">     0</i>
   <i type="int" name="NOMEGAR">     0</i>
   <i type="int" name="NBANDSGW">    -1</i>
   <i type="int" name="NBANDSO">    -1</i>
   <i type="int" name="NBANDSV">    -1</i>
   <i type="int" name="NELM">   300</i>
   <i type="int" name="DIM">     3</i>
   <i type="int" name="ANTIRES">     0</i>
   <i name="OMEGAMAX">    -30.00000000</i>
   <i name="OMEGAMIN">    -30.00000000</i>
   <i name="OMEGATL">   -200.00000000</i>
   <i type="int" name="OMEGAGRID">     0</i>
   <i name="CSHIFT">     -0.10000000</i>
   <i type="logical" name="SELFENERGY"> F  </i>
   <i type="logical" name="LSPECTRAL"> F  </i>
   <i type="logical" name="ODDONLYGW"> F  </i>
   <i type="logical" name="EVENONLYGW"> F  </i>
   <i type="int" name="NKREDLFX">     1</i>
   <i type="int" name="NKREDLFY">     1</i>
   <i type="int" name="NKREDLFZ">     1</i>
   <i type="int" name="MAXMEM">  1800</i>
   <i type="int" name="TELESCOPE">     0</i>
   <i type="int" name="TAUPAR">     1</i>
  </separator>
  <separator name="External order field" >
   <i name="OFIELD_KAPPA">      0.00000000</i>
   <v name="OFIELD_K">      0.00000000      0.00000000      0.00000000</v>
   <i name="OFIELD_Q6_NEAR">      0.00000000</i>
   <i name="OFIELD_Q6_FAR">      0.00000000</i>
   <i name="OFIELD_A">      0.00000000</i>
  </separator>
 </parameters>
 <atominfo>
  <atoms>      36 </atoms>
  <types>       3 </types>
  <array name="atoms" >
   <dimension dim="1">ion</dimension>
   <field type="string">element</field>
   <field type="int">atomtype</field>
   <set>
    <rc><c>Fe</c><c>   1</c></rc>
    <rc><c>Fe</c><c>   1</c></rc>
    <rc><c>Fe</c><c>   1</c></rc>
    <rc><c>Fe</c><c>   1</c></rc>
    <rc><c>Fe</c><c>   1</c></rc>
    <rc><c>Fe</c><c>   1</c></rc>
    <rc><c>Fe</c><c>   1</c></rc>
    <rc><c>Fe</c><c>   1</c></rc>
    <rc><c>Fe</c><c>   1</c></rc>
    <rc><c>Fe</c><c>   1</c></rc>
    <rc><c>Fe</c><c>   1</c></rc>
    <rc><c>Fe</c><c>   1</c></rc>
    <rc><c>O </c><c>   2</c></rc>
    <rc><c>O </c><c>   2</c></rc>
    <rc><c>F </c><c>   3</c></rc>
    <rc><c>F </c><c>   3</c></rc>
    <rc><c>F </c><c>   3</c></rc>
    <rc><c>F </c><c>   3</c></rc>
    <rc><c>F </c><c>   3</c></rc>
    <rc><c>F </c><c>   3</c></rc>
    <rc><c>F </c><c>   3</c></rc>
    <rc><c>F </c><c>   3</c></rc>
    <rc><c>F </c><c>   3</c></rc>
    <rc><c>F </c><c>   3</c></rc>
    <rc><c>F </c><c>   3</c></rc>
    <rc><c>F </c><c>   3</c></rc>
    <rc><c>F </c><c>   3</c></rc>
    <rc><c>F </c><c>   3</c></rc>
    <rc><c>F </c><c>   3</c></rc>
    <rc><c>F </c><c>   3</c></rc>
    <rc><c>F </c><c>   3</c></rc>
    <rc><c>F </c><c>   3</c></rc>
    <rc><c>F </c><c>   3</c></rc>
    <rc><c>F </c><c>   3</c></rc>
    <rc><c>F </c><c>   3</c></rc>
    <rc><c>F </c><c>   3</c></rc>
   </set>
  </array>
  <array name="atomtypes" >
   <dimension dim="1">type</dimension>
   <field type="int">atomspertype</field>
   <field type="string">element</field>
   <field>mass</field>
   <field>valence</field>
   <field type="string">pseudopotential</field>
   <set>
    <rc><c>  12</c><c>Fe</c><c>     55.84700000</c><c>      8.00000000</c><c>  PAW_PBE Fe 06Sep2000                  </c></rc>
    <rc><c>   2</c><c>O </c><c>     16.00000000</c><c>      6.00000000</c><c>  PAW_PBE O 08Apr2002                   </c></rc>
    <rc><c>  22</c><c>F </c><c>     18.99800000</c><c>      7.00000000</c><c>  PAW_PBE F 08Apr2002                   </c></rc>
   </set>
  </array>
 </atominfo>
 <structure name="initialpos" >
  <crystal>
   <varray name="basis" >
    <v>       3.25262800       0.00000000       0.00000000 </v>
    <v>       0.00000000      20.54938400       0.00000000 </v>
    <v>      -0.02531400       0.00000000       6.79221100 </v>
   </varray>
   <i name="volume">    453.98799923 </i>
   <varray name="rec_basis" >
    <v>       0.30744370       0.00000000       0.00114582 </v>
    <v>       0.00000000       0.04866326       0.00000000 </v>
    <v>       0.00000000       0.00000000       0.14722746 </v>
   </varray>
  </crystal>
  <varray name="positions" >
   <v>       0.00000000       0.16671900       0.50139100 </v>
   <v>       0.00000000       0.83328100       0.50139100 </v>
   <v>       0.00000000       0.66671900       0.00139100 </v>
   <v>       0.00000000       0.33328100       0.01097700 </v>
   <v>       0.50000000       0.16602100       0.00000400 </v>
   <v>       0.50000000       0.83397900       0.00000400 </v>
   <v>       0.50000000       0.66602100       0.50000400 </v>
   <v>       0.50000000       0.32830200       0.50000400 </v>
   <v>       0.00000000       0.00000000       0.01216200 </v>
   <v>       0.00000000       0.50000000       0.51216200 </v>
   <v>       0.50000000       0.00000000       0.47240000 </v>
   <v>       0.50000000       0.50000000       0.97240000 </v>
   <v>       0.00000000       0.00000000       0.30734300 </v>
   <v>       0.00000000       0.50000000       0.81436200 </v>
   <v>       0.00000000       0.16816900       0.20329900 </v>
   <v>       0.00000000       0.83183100       0.20329900 </v>
   <v>       0.00000000       0.66816900       0.70329900 </v>
   <v>       0.00000000       0.33183100       0.70329900 </v>
   <v>       0.00000000       0.16838200       0.79934600 </v>
   <v>       0.00000000       0.83161800       0.79934600 </v>
   <v>       0.00000000       0.66838200       0.29934600 </v>
   <v>       0.00000000       0.33161800       0.29934600 </v>
   <v>       0.50000000       0.06837200       0.99633700 </v>
   <v>       0.50000000       0.93162800       0.99633700 </v>
   <v>       0.50000000       0.56837200       0.49633700 </v>
   <v>       0.50980900       0.43162800       0.49633700 </v>
   <v>       0.50000000       0.09818400       0.50567900 </v>
   <v>       0.50000000       0.90181600       0.50567900 </v>
   <v>       0.50000000       0.59818400       0.00567900 </v>
   <v>       0.50000000       0.40100900       0.00240800 </v>
   <v>       0.50961200       0.23406000       0.50152500 </v>
   <v>       0.50000000       0.76594000       0.50152500 </v>
   <v>       0.50000000       0.73406000       0.00152500 </v>
   <v>       0.50932800       0.26594000       0.00152500 </v>
   <v>       0.00000000       0.00000000       0.69474100 </v>
   <v>       0.00000000       0.50000000       0.19474100 </v>
  </varray>
 </structure>
 <calculation>
  <scstep>
   <time name="diag">    2.33    2.33</time>
   <time name="diis">    4.36    4.36</time>
   <time name="orth">    0.55    0.55</time>
   <time name="total">    7.44    7.44</time>
   <energy>
    <i name="alphaZ">    943.57652748 </i>
    <i name="ewald"> -15987.32530871 </i>
    <i name="hartreedc">  -6697.18217231 </i>
    <i name="XCdc">    902.23563281 </i>
    <i name="pawpsdc">  19213.82102697 </i>
    <i name="pawaedc"> -19422.08171028 </i>
    <i name="eentropy">      0.03308820 </i>
    <i name="bandstr">   1766.82748198 </i>
    <i name="atom">  22504.09828397 </i>
    <i name="e_fr_energy">   3224.00285010 </i>
    <i name="e_wo_entrp">   3223.96976190 </i>
    <i name="e_0_energy">   3223.99182070 </i>
   </energy>
  </scstep>
  <scstep>
   <time name="diag">    2.33    2.33</time>
   <time name="diis">    4.36    4.36</time>
   <time name="orth">    0.55    0.55</time>
   <time name="total">    7.25    7.25</time>
   <energy>
    <i name="e_fr_energy">   1010.68768865 </i>
    <i name="e_wo_entrp">   1010.69288922 </i>
    <i name="e_0_energy">   1010.68942217 </i>
   </energy>
  </scstep>
  <scstep>
   <time name="diag">    2.33    2.33</time>
   <time name="diis">    4.36    4.36</time>
   <time name="orth">    0.55    0.55</time>
   <time name="total">    7.25    7.25</time>
   <energy>
    <i name="e_fr_energy">    346.51583957 </i>
    <i name="e_wo_entrp">    346.56789609 </i>
    <i name="e_0_energy">    346.53319174 </i>
   </energy>
  </scstep>
  <scstep>
   <time name="diag">    2.33    2.33</time>
   <time name="diis">    4.73    4.73</time>
   <time name="orth">    0.65    0.65</time>
   <time name="total">    7.71    7.72</time>
   <energy>
    <i name="e_fr_energy">     71.26532035 </i>
    <i name="e_wo_entrp">     71.22353880 </i>
    <i name="e_0_energy">     71.25139317 </i>
   </energy>
  </scstep>
  <scstep>
   <time name="diag">    2.60    2.60</time>
   <time name="diis">    5.73    5.73</time>
   <time name="orth">    0.61    0.61</time>
   <time name="total">    8.94    8.95</time>
   <energy>
    <i name="e_fr_energy">    -86.98292541 </i>
    <i name="e_wo_entrp">    -87.04233782 </i>
    <i name="e_0_energy">    -87.00272954 </i>
   </energy>
  </scstep>
  <scstep>
   <time name="diag">    2.44    2.44</time>
   <time name="diis">    5.31    5.32</time>
   <time name="orth">    0.61    0.61</time>
   <time name="total">    8.37    8.37</time>
   <energy>
    <i name="e_fr_energy">   -159.94421710 </i>
    <i name="e_wo_entrp">   -160.03500236 </i>
    <i name="e_0_energy">   -159.97447885 </i>
   </energy>
  </scstep>
  <scstep>
   <time name="diag">    2.43    2.43</time>
   <time name="diis">    5.09    5.55</time>
   <time name="orth">    0.58    0.58</time>
   <time name="total">    8.10    8.56</time>
   <energy>
    <i name="e_fr_energy">   -196.69854159 </i>
    <i name="e_wo_entrp">   -196.85520768 </i>
    <i name="e_0_energy">   -196.75076362 </i>
   </energy>
  </scstep>
  <scstep>
   <time name="diag">    2.54    2.86</time>
   <time name="diis">    5.99    6.13</time>
   <time name="orth">    0.61    0.64</time>
   <time name="total">    9.14    9.64</time>
   <energy>
    <i name="e_fr_energy">   -211.50969639 </i>
    <i name="e_wo_entrp">   -211.69008912 </i>
    <i name="e_0_energy">   -211.56982730 </i>
   </energy>
  </scstep>
  <scstep>
   <time name="diag">    2.44    3.52</time>
   <time name="diis">   14.03   18.15</time>
   <time name="orth">    0.58    1.16</time>
   <time name="total">   17.06   22.85</time>
   <energy>
    <i name="e_fr_energy">   -226.18816129 </i>
    <i name="e_wo_entrp">   -226.39467511 </i>
    <i name="e_0_energy">   -226.25699923 </i>
   </energy>
  </scstep>
  <scstep>
   <time name="diag">    2.48    3.98</time>
   <time name="diis">   14.50   27.08</time>
   <time name="orth">    0.57    1.16</time>
   <time name="total">   17.56   32.22</time>
   <energy>
    <i name="e_fr_energy">   -226.49404180 </i>
    <i name="e_wo_entrp">   -226.69823643 </i>
    <i name="e_0_energy">   -226.56210668 </i>
   </energy>
  </scstep>
  <scstep>
   <time name="diag">    2.38    4.69</time>
   <time name="diis">   12.54   21.65</time>
   <time name="orth">    0.57    0.85</time>
   <time name="total">   15.50   27.20</time>
   <energy>
    <i name="e_fr_energy">   -226.74274739 </i>
    <i name="e_wo_entrp">   -226.93507997 </i>
    <i name="e_0_energy">   -226.80685825 </i>
   </energy>
  </scstep>
  <scstep>
   <time name="diag">    2.38    4.71</time>
   <time name="diis">   10.80   20.83</time>
   <time name="orth">    0.57    1.14</time>
   <time name="total">   14.71   28.59</time>
   <energy>
    <i name="e_fr_energy">   -226.84471597 </i>
    <i name="e_wo_entrp">   -227.02385488 </i>
    <i name="e_0_energy">   -226.90442894 </i>
   </energy>
  </scstep>
  <scstep>
   <time name="diag">    2.42    4.77</time>
   <time name="diis">   10.45   19.67</time>
   <time name="orth">    0.58    1.16</time>
   <time name="total">   14.64   27.99</time>
   <energy>
    <i name="e_fr_energy">   -210.45399664 </i>
    <i name="e_wo_entrp">   -210.39463220 </i>
    <i name="e_0_energy">   -210.43420849 </i>
   </energy>
  </scstep>
  <scstep>
   <time name="diag">    2.41    4.68</time>
   <time name="diis">    9.43   18.73</time>
   <time name="orth">    0.60    1.20</time>
   <time name="total">   13.64   27.04</time>
   <energy>
    <i name="e_fr_energy">   -255.66949447 </i>
    <i name="e_wo_entrp">   -255.67331988 </i>
    <i name="e_0_energy">   -255.67076961 </i>
   </energy>
  </scstep>
  <scstep>
   <time name="diag">    2.49    4.86</time>
   <time name="diis">   11.03   21.23</time>
   <time name="orth">    0.60    1.19</time>
   <time name="total">   15.32   29.68</time>
   <energy>
    <i name="e_fr_energy">   -246.85087984 </i>
    <i name="e_wo_entrp">   -246.87668547 </i>
    <i name="e_0_energy">   -246.85948171 </i>
   </energy>
  </scstep>
  <scstep>
   <time name="diag">    2.45    4.90</time>
   <time name="diis">    9.74   18.88</time>
   <time name="orth">    0.57    1.09</time>
   <time name="total">   13.97   27.26</time>
   <energy>
    <i name="e_fr_energy">   -217.77455260 </i>
    <i name="e_wo_entrp">   -217.84697999 </i>
    <i name="e_0_energy">   -217.79869506 </i>
   </energy>
  </scstep>
  <scstep>
   <time name="diag">    2.40    2.90</time>
   <time name="diis">   10.00   19.89</time>
   <time name="orth">    0.60    1.20</time>
   <time name="total">   14.20   26.39</time>
   <energy>
    <i name="e_fr_energy">   -234.40313419 </i>
    <i name="e_wo_entrp">   -234.37379627 </i>
    <i name="e_0_energy">   -234.39335488 </i>
   </energy>
  </scstep>
  <scstep>
   <time name="diag">    2.34    4.67</time>
   <time name="diis">   11.19   21.40</time>
   <time name="orth">    0.60    1.20</time>
   <time name="total">   15.19   29.42</time>
   <energy>
    <i name="e_fr_energy">   -244.85698915 </i>
    <i name="e_wo_entrp">   -244.92871024 </i>
    <i name="e_0_energy">   -244.88089618 </i>
   </energy>
  </scstep>
  <scstep>
   <time name="diag">    2.32    4.45</time>
   <time name="diis">   10.79   21.07</time>
   <time name="orth">    0.59    1.20</time>
   <time name="total">   14.77   28.85</time>
   <energy>
    <i name="e_fr_energy">   -227.05209195 </i>
    <i name="e_wo_entrp">   -227.07242289 </i>
    <i name="e_0_energy">   -227.05886893 </i>
   </energy>
  </scstep>
  <scstep>
   <time name="diag">    2.32    4.30</time>
   <time name="diis">   10.24   18.58</time>
   <time name="orth">    0.57    1.15</time>
   <time name="total">   14.20   25.90</time>
   <energy>
    <i name="e_fr_energy">   -223.79484722 </i>
    <i name="e_wo_entrp">   -223.86622418 </i>
    <i name="e_0_energy">   -223.81863954 </i>
   </energy>
  </scstep>
  <scstep>
   <time name="diag">    2.26    3.01</time>
   <time name="diis">   10.96   20.68</time>
   <time name="orth">    0.59    1.19</time>
   <time name="total">   14.87   26.97</time>
   <energy>
    <i name="e_fr_energy">   -228.23895421 </i>
    <i name="e_wo_entrp">   -228.25241371 </i>
    <i name="e_0_energy">   -228.24344071 </i>
   </energy>
  </scstep>
  <scstep>
   <time name="diag">    2.32    4.65</time>
   <time name="diis">   10.39   20.30</time>
   <time name="orth">    0.59    0.99</time>
   <time name="total">   14.37   28.06</time>
   <energy>
    <i name="e_fr_energy">   -245.19493198 </i>
    <i name="e_wo_entrp">   -245.17854598 </i>
    <i name="e_0_energy">   -245.18946998 </i>
   </energy>
  </scstep>
  <scstep>
   <time name="diag">    2.40    4.38</time>
   <time name="diis">   10.44   20.29</time>
   <time name="orth">    0.58    1.16</time>
   <time name="total">   14.58   28.14</time>
   <energy>
    <i name="e_fr_energy">   -221.02094591 </i>
    <i name="e_wo_entrp">   -220.96103658 </i>
    <i name="e_0_energy">   -221.00097614 </i>
   </energy>
  </scstep>
  <scstep>
   <time name="diag">    2.37    4.20</time>
   <time name="diis">    9.74   18.61</time>
   <time name="orth">    0.58    1.16</time>
   <time name="total">   13.85   26.09</time>
   <energy>
    <i name="e_fr_energy">   -229.60511623 </i>
    <i name="e_wo_entrp">   -229.54052765 </i>
    <i name="e_0_energy">   -229.58358671 </i>
   </energy>
  </scstep>
  <scstep>
   <time name="diag">    2.38    4.36</time>
   <time name="diis">    9.69   18.94</time>
   <time name="orth">    0.58    1.15</time>
   <time name="total">   13.80   26.64</time>
   <energy>
    <i name="e_fr_energy">   -212.54395382 </i>
    <i name="e_wo_entrp">   -212.55960182 </i>
    <i name="e_0_energy">   -212.54916982 </i>
   </energy>
  </scstep>
  <scstep>
   <time name="diag">    2.38    4.57</time>
   <time name="diis">    9.74   18.64</time>
   <time name="orth">    0.58    1.16</time>
   <time name="total">   13.86   26.68</time>
   <energy>
    <i name="e_fr_energy">   -214.14922973 </i>
    <i name="e_wo_entrp">   -214.19140164 </i>
    <i name="e_0_energy">   -214.16328704 </i>
   </energy>
  </scstep>
  <scstep>
   <time name="diag">    2.38    4.77</time>
   <time name="diis">    9.82   19.63</time>
   <time name="orth">    0.58    1.16</time>
   <time name="total">   13.94   27.88</time>
   <energy>
    <i name="e_fr_energy">   -202.84280852 </i>
    <i name="e_wo_entrp">   -202.86914921 </i>
    <i name="e_0_energy">   -202.85158875 </i>
   </energy>
  </scstep>
  <scstep>
   <time name="diag">    2.40    4.47</time>
   <time name="diis">   10.15   16.36</time>
   <time name="orth">    0.59    1.17</time>
   <time name="total">   14.31   24.35</time>
   <energy>
    <i name="e_fr_energy">   -200.87283600 </i>
    <i name="e_wo_entrp">   -200.74116044 </i>
    <i name="e_0_energy">   -200.82894414 </i>
   </energy>
  </scstep>
  <scstep>
   <time name="diag">    2.42    4.84</time>
   <time name="diis">   10.58   20.79</time>
   <time name="orth">    0.58    1.16</time>
   <time name="total">   14.75   29.13</time>
   <energy>
    <i name="e_fr_energy">   -199.03655640 </i>
    <i name="e_wo_entrp">   -199.10804104 </i>
    <i name="e_0_energy">   -199.06038461 </i>
   </energy>
  </scstep>
  <scstep>
   <time name="diag">    2.40    4.31</time>
   <time name="diis">   10.18   16.28</time>
   <time name="orth">    0.57    0.57</time>
   <time name="total">   14.32   23.36</time>
   <energy>
    <i name="e_fr_energy">   -196.84143840 </i>
    <i name="e_wo_entrp">   -196.78346222 </i>
    <i name="e_0_energy">   -196.82211300 </i>
   </energy>
  </scstep>
  <scstep>
   <time name="diag">    2.40    4.59</time>
   <time name="diis">   10.08   18.92</time>
   <time name="orth">    0.59    0.59</time>
   <time name="total">   14.23   25.47</time>
   <energy>
    <i name="e_fr_energy">   -196.03355046 </i>
    <i name="e_wo_entrp">   -195.95752207 </i>
    <i name="e_0_energy">   -196.00820766 </i>
   </energy>
  </scstep>
  <scstep>
   <time name="diag">    2.41    3.91</time>
   <time name="diis">   10.93   21.10</time>
   <time name="orth">    0.58    1.01</time>
   <time name="total">   15.09   28.05</time>
   <energy>
    <i name="e_fr_energy">   -195.96874297 </i>
    <i name="e_wo_entrp">   -195.89694648 </i>
    <i name="e_0_energy">   -195.94481081 </i>
   </energy>
  </scstep>
  <scstep>
   <time name="diag">    2.39    2.39</time>
   <time name="diis">   11.70   14.05</time>
   <time name="orth">    0.61    0.61</time>
   <time name="total">   15.89   19.13</time>
   <energy>
    <i name="e_fr_energy">   -195.73066584 </i>
    <i name="e_wo_entrp">   -195.63737312 </i>
    <i name="e_0_energy">   -195.69956827 </i>
   </energy>
  </scstep>
  <scstep>
   <time name="diag">    2.52    5.05</time>
   <time name="diis">   12.64   25.01</time>
   <time name="orth">    0.60    1.20</time>
   <time name="total">   16.95   33.63</time>
   <energy>
    <i name="e_fr_energy">   -195.53531061 </i>
    <i name="e_wo_entrp">   -195.45224956 </i>
    <i name="e_0_energy">   -195.50762359 </i>
   </energy>
  </scstep>
  <scstep>
   <time name="diag">    2.43    4.86</time>
   <time name="diis">   11.36   22.52</time>
   <time name="orth">    0.60    1.20</time>
   <time name="total">   15.58   30.97</time>
   <energy>
    <i name="e_fr_energy">   -195.06205549 </i>
    <i name="e_wo_entrp">   -195.01199298 </i>
    <i name="e_0_energy">   -195.04536798 </i>
   </energy>
  </scstep>
  <scstep>
   <time name="diag">    2.46    4.92</time>
   <time name="diis">   12.11   23.53</time>
   <time name="orth">    0.62    0.73</time>
   <time name="total">   16.40   31.61</time>
   <energy>
    <i name="e_fr_energy">   -194.80948460 </i>
    <i name="e_wo_entrp">   -194.79717356 </i>
    <i name="e_0_energy">   -194.80538092 </i>
   </energy>
  </scstep>
  <scstep>
   <time name="diag">    2.58    5.04</time>
   <time name="diis">   12.61   24.31</time>
   <time name="orth">    0.61    1.22</time>
   <time name="total">   17.00   32.96</time>
   <energy>
    <i name="e_fr_energy">   -194.68278038 </i>
    <i name="e_wo_entrp">   -194.69696879 </i>
    <i name="e_0_energy">   -194.68750985 </i>
   </energy>
  </scstep>
  <scstep>
   <time name="diag">    2.43    2.83</time>
   <time name="diis">   11.02   16.08</time>
   <time name="orth">    0.60    1.20</time>
   <time name="total">   15.24   22.50</time>
   <energy>
    <i name="e_fr_energy">   -194.61536068 </i>
    <i name="e_wo_entrp">   -194.62816186 </i>
    <i name="e_0_energy">   -194.61962774 </i>
   </energy>
  </scstep>
  <scstep>
   <time name="diag">    2.44    4.90</time>
   <time name="diis">   10.66   21.19</time>
   <time name="orth">    0.58    1.18</time>
   <time name="total">   14.87   29.62</time>
   <energy>
    <i name="e_fr_energy">   -194.57507669 </i>
    <i name="e_wo_entrp">   -194.60562083 </i>
    <i name="e_0_energy">   -194.58525807 </i>
   </energy>
  </scstep>
  <scstep>
   <time name="diag">    2.42    4.83</time>
   <time name="diis">   10.61   20.54</time>
   <time name="orth">    0.59    1.18</time>
   <time name="total">   14.80   28.93</time>
   <energy>
    <i name="e_fr_energy">   -194.57390319 </i>
    <i name="e_wo_entrp">   -194.59336187 </i>
    <i name="e_0_energy">   -194.58038942 </i>
   </energy>
  </scstep>
  <scstep>
   <time name="diag">    2.44    4.35</time>
   <time name="diis">   11.40   20.75</time>
   <time name="orth">    0.61    1.23</time>
   <time name="total">   15.66   28.73</time>
   <energy>
    <i name="e_fr_energy">   -194.56302151 </i>
    <i name="e_wo_entrp">   -194.57231141 </i>
    <i name="e_0_energy">   -194.56611814 </i>
   </energy>
  </scstep>
  <scstep>
   <time name="diag">    2.48    2.94</time>
   <time name="diis">   12.31   18.20</time>
   <time name="orth">    0.61    1.21</time>
   <time name="total">   16.61   24.79</time>
   <energy>
    <i name="e_fr_energy">   -194.57221287 </i>
    <i name="e_wo_entrp">   -194.57428431 </i>
    <i name="e_0_energy">   -194.57290335 </i>
   </energy>
  </scstep>
  <scstep>
   <time name="diag">    2.50    5.01</time>
   <time name="diis">   10.80   21.54</time>
   <time name="orth">    0.61    1.21</time>
   <time name="total">   15.12   30.18</time>
   <energy>
    <i name="e_fr_energy">   -194.56631805 </i>
    <i name="e_wo_entrp">   -194.57713424 </i>
    <i name="e_0_energy">   -194.56992345 </i>
   </energy>
  </scstep>
  <scstep>
   <time name="diag">    2.46    4.94</time>
   <time name="diis">    8.70   17.16</time>
   <time name="orth">    0.57    1.15</time>
   <time name="total">   12.93   25.64</time>
   <energy>
    <i name="e_fr_energy">   -194.56211704 </i>
    <i name="e_wo_entrp">   -194.57149599 </i>
    <i name="e_0_energy">   -194.56524336 </i>
   </energy>
  </scstep>
  <scstep>
   <time name="diag">    2.39    4.44</time>
   <time name="diis">    8.79   17.60</time>
   <time name="orth">    0.59    1.18</time>
   <time name="total">   12.95   25.32</time>
   <energy>
    <i name="e_fr_energy">   -194.56018277 </i>
    <i name="e_wo_entrp">   -194.56567274 </i>
    <i name="e_0_energy">   -194.56201276 </i>
   </energy>
  </scstep>
  <scstep>
   <time name="diag">    2.41    4.81</time>
   <time name="diis">    7.15   14.31</time>
   <time name="orth">    0.60    1.20</time>
   <time name="total">   11.35   22.69</time>
   <energy>
    <i name="e_fr_energy">   -194.55468686 </i>
    <i name="e_wo_entrp">   -194.56504356 </i>
    <i name="e_0_energy">   -194.55813910 </i>
   </energy>
  </scstep>
  <scstep>
   <time name="diag">    2.41    4.10</time>
   <time name="diis">    6.93   12.92</time>
   <time name="orth">    0.59    1.18</time>
   <time name="total">   11.11   20.57</time>
   <energy>
    <i name="e_fr_energy">   -194.55510565 </i>
    <i name="e_wo_entrp">   -194.56417595 </i>
    <i name="e_0_energy">   -194.55812909 </i>
   </energy>
  </scstep>
  <scstep>
   <time name="diag">    2.45    4.65</time>
   <time name="diis">    6.86   13.32</time>
   <time name="orth">    0.60    1.20</time>
   <time name="total">   11.11   21.59</time>
   <energy>
    <i name="e_fr_energy">   -194.55213264 </i>
    <i name="e_wo_entrp">   -194.56570888 </i>
    <i name="e_0_energy">   -194.55665805 </i>
   </energy>
  </scstep>
  <scstep>
   <time name="diag">    2.45    4.51</time>
   <time name="diis">    5.68   10.30</time>
   <time name="orth">    0.60    1.20</time>
   <time name="total">    9.93   18.29</time>
   <energy>
    <i name="e_fr_energy">   -194.55144413 </i>
    <i name="e_wo_entrp">   -194.56688014 </i>
    <i name="e_0_energy">   -194.55658947 </i>
   </energy>
  </scstep>
  <scstep>
   <time name="diag">    2.49    4.46</time>
   <time name="diis">    7.35   14.71</time>
   <time name="orth">    0.61    1.20</time>
   <time name="total">   11.67   22.82</time>
   <energy>
    <i name="e_fr_energy">   -194.54967740 </i>
    <i name="e_wo_entrp">   -194.57181727 </i>
    <i name="e_0_energy">   -194.55705736 </i>
   </energy>
  </scstep>
  <scstep>
   <time name="diag">    2.45    4.85</time>
   <time name="diis">    5.30   10.08</time>
   <time name="orth">    0.59    1.19</time>
   <time name="total">    9.56   18.54</time>
   <energy>
    <i name="e_fr_energy">   -194.54956902 </i>
    <i name="e_wo_entrp">   -194.57234278 </i>
    <i name="e_0_energy">   -194.55716027 </i>
   </energy>
  </scstep>
  <scstep>
   <time name="diag">    2.46    4.81</time>
   <time name="diis">    5.51   11.04</time>
   <time name="orth">    0.61    1.21</time>
   <time name="total">    9.77   19.41</time>
   <energy>
    <i name="e_fr_energy">   -194.54935580 </i>
    <i name="e_wo_entrp">   -194.57279499 </i>
    <i name="e_0_energy">   -194.55716886 </i>
   </energy>
  </scstep>
  <scstep>
   <time name="diag">    2.46    4.18</time>
   <time name="diis">    5.56    9.99</time>
   <time name="orth">    0.60    1.02</time>
   <time name="total">    9.80   16.41</time>
   <energy>
    <i name="e_fr_energy">   -194.54961486 </i>
    <i name="e_wo_entrp">   -194.57345115 </i>
    <i name="e_0_energy">   -194.55756029 </i>
   </energy>
  </scstep>
  <scstep>
   <time name="diag">    2.43    2.52</time>
   <time name="diis">    5.41   10.82</time>
   <time name="orth">    0.59    1.18</time>
   <time name="total">    9.64   16.85</time>
   <energy>
    <i name="e_fr_energy">   -194.54981672 </i>
    <i name="e_wo_entrp">   -194.57558484 </i>
    <i name="e_0_energy">   -194.55840609 </i>
   </energy>
  </scstep>
  <scstep>
   <time name="diag">    2.45    4.83</time>
   <time name="diis">    5.34   10.68</time>
   <time name="orth">    0.61    1.04</time>
   <time name="total">    9.61   18.64</time>
   <energy>
    <i name="e_fr_energy">   -194.55002402 </i>
    <i name="e_wo_entrp">   -194.57704156 </i>
    <i name="e_0_energy">   -194.55902986 </i>
   </energy>
  </scstep>
  <scstep>
   <time name="diag">    2.44    4.89</time>
   <time name="diis">    5.35   10.71</time>
   <time name="orth">    0.60    1.21</time>
   <time name="total">    8.62   17.24</time>
   <energy>
    <i name="alphaZ">    943.57652748 </i>
    <i name="ewald"> -15987.32530871 </i>
    <i name="hartreedc">  -6818.04614520 </i>
    <i name="XCdc">    916.79387447 </i>
    <i name="pawpsdc">  22383.85708923 </i>
    <i name="pawaedc"> -22598.45944128 </i>
    <i name="eentropy">      0.02667072 </i>
    <i name="bandstr">  -1539.07163102 </i>
    <i name="atom">  22504.09828397 </i>
    <i name="e_fr_energy">   -194.55008035 </i>
    <i name="e_wo_entrp">   -194.57675107 </i>
    <i name="e_0_energy">   -194.55897059 </i>
   </energy>
  </scstep>
  <structure>
   <crystal>
    <varray name="basis" >
     <v>       3.25262800       0.00000000       0.00000000 </v>
     <v>       0.00000000      20.54938400       0.00000000 </v>
     <v>      -0.02531400       0.00000000       6.79221100 </v>
    </varray>
    <i name="volume">    453.98799923 </i>
    <varray name="rec_basis" >
     <v>       0.30744370       0.00000000       0.00114582 </v>
     <v>       0.00000000       0.04866326       0.00000000 </v>
     <v>       0.00000000       0.00000000       0.14722746 </v>
    </varray>
   </crystal>
   <varray name="positions" >
    <v>       0.00000000       0.16671900       0.50139100 </v>
    <v>       0.00000000       0.83328100       0.50139100 </v>
    <v>       0.00000000       0.66671900       0.00139100 </v>
    <v>       0.00000000       0.33328100       0.01097700 </v>
    <v>       0.50000000       0.16602100       0.00000400 </v>
    <v>       0.50000000       0.83397900       0.00000400 </v>
    <v>       0.50000000       0.66602100       0.50000400 </v>
    <v>       0.50000000       0.32830200       0.50000400 </v>
    <v>       0.00000000       0.00000000       0.01216200 </v>
    <v>       0.00000000       0.50000000       0.51216200 </v>
    <v>       0.50000000       0.00000000       0.47240000 </v>
    <v>       0.50000000       0.50000000       0.97240000 </v>
    <v>       0.00000000       0.00000000       0.30734300 </v>
    <v>       0.00000000       0.50000000       0.81436200 </v>
    <v>       0.00000000       0.16816900       0.20329900 </v>
    <v>       0.00000000       0.83183100       0.20329900 </v>
    <v>       0.00000000       0.66816900       0.70329900 </v>
    <v>       0.00000000       0.33183100       0.70329900 </v>
    <v>       0.00000000       0.16838200       0.79934600 </v>
    <v>       0.00000000       0.83161800       0.79934600 </v>
    <v>       0.00000000       0.66838200       0.29934600 </v>
    <v>       0.00000000       0.33161800       0.29934600 </v>
    <v>       0.50000000       0.06837200       0.99633700 </v>
    <v>       0.50000000       0.93162800       0.99633700 </v>
    <v>       0.50000000       0.56837200       0.49633700 </v>
    <v>       0.50980900       0.43162800       0.49633700 </v>
    <v>       0.50000000       0.09818400       0.50567900 </v>
    <v>       0.50000000       0.90181600       0.50567900 </v>
    <v>       0.50000000       0.59818400       0.00567900 </v>
    <v>       0.50000000       0.40100900       0.00240800 </v>
    <v>       0.50961200       0.23406000       0.50152500 </v>
    <v>       0.50000000       0.76594000       0.50152500 </v>
    <v>       0.50000000       0.73406000       0.00152500 </v>
    <v>       0.50932800       0.26594000       0.00152500 </v>
    <v>       0.00000000       0.00000000       0.69474100 </v>
    <v>       0.00000000       0.50000000       0.19474100 </v>
   </varray>
  </structure>
  <varray name="forces" >
   <v>       0.07416542      -0.22251712       0.03735790 </v>
   <v>       0.00131478       0.07784383       0.02407365 </v>
   <v>       0.00041597      -0.07820079       0.02825219 </v>
   <v>       0.05815051       0.03524808      -0.83401347 </v>
   <v>       0.06463404       0.22904475       0.06027658 </v>
   <v>       0.00104194      -0.25107401       0.05521983 </v>
   <v>       0.00910089       0.25185668       0.05249015 </v>
   <v>       0.12971611       1.16886580       0.21102163 </v>
   <v>      -0.00543915      -0.00500717       1.34782858 </v>
   <v>       0.04107618      -0.14346653       1.27925244 </v>
   <v>      -0.00191149      -0.00740988      -0.49765271 </v>
   <v>       0.00258631      -0.04124308      -0.20151234 </v>
   <v>       0.02233173       0.00841074      -0.59849554 </v>
   <v>       0.02494521       0.02014180      -0.97668645 </v>
   <v>       0.01020079      -0.11436455      -0.53980123 </v>
   <v>      -0.00440225       0.13381659      -0.55139129 </v>
   <v>      -0.00471390      -0.13414711      -0.54951536 </v>
   <v>       0.01552295      -0.15250744      -0.45821451 </v>
   <v>       0.01739922      -0.10832969       0.51491660 </v>
   <v>       0.00429470       0.11964204       0.52163505 </v>
   <v>       0.00400852      -0.11794607       0.52008060 </v>
   <v>       0.02419640      -0.14794222       0.75507831 </v>
   <v>      -0.01886828      -0.52708038       0.12759599 </v>
   <v>      -0.00405722       0.52662223       0.12975912 </v>
   <v>      -0.02650786      -0.55757673       0.15501992 </v>
   <v>      -0.12340422       0.41256469       0.15331093 </v>
   <v>      -0.02195134       0.87632009      -0.13931054 </v>
   <v>       0.00047386      -0.89466643      -0.13370447 </v>
   <v>       0.00071617       0.91497761      -0.12669481 </v>
   <v>      -0.01833734      -0.84402548       0.09171157 </v>
   <v>      -0.14915985      -0.93267377      -0.04239211 </v>
   <v>      -0.00274480       0.52492302      -0.02906058 </v>
   <v>       0.00008851      -0.52687143      -0.03068387 </v>
   <v>      -0.12001310       0.51056440       0.13361324 </v>
   <v>      -0.00568902       0.00183025      -0.27600493 </v>
   <v>       0.00081962      -0.00562271      -0.21336012 </v>
  </varray>
  <varray name="stress" >
   <v>    -285.78245344      -0.24714000       1.28923342 </v>
   <v>      -0.24714160    -242.95492665      -0.05732811 </v>
   <v>       1.28923321      -0.05732896    -273.33647299 </v>
  </varray>
  <energy>
   <i name="e_fr_energy">   -194.55008035 </i>
   <i name="e_wo_entrp">   -194.55897059 </i>
   <i name="e_0_energy">      0.02667072 </i>
  </energy>
  <time name="totalsc">  750.69 1338.59</time>
  <eigenvalues>
   <array>
    <dimension dim="1">band</dimension>
    <dimension dim="2">kpoint</dimension>
    <dimension dim="3">spin</dimension>
    <field>eigene</field>
    <field>occ</field>
    <set>
     <set comment="spin 1">
      <set comment="kpoint 1">
       <r>  -23.0145    1.0000 </r>
       <r>  -22.8396    1.0000 </r>
       <r>  -22.8144    1.0000 </r>
       <r>  -22.7077    1.0000 </r>
       <r>  -22.6978    1.0000 </r>
       <r>  -22.4620    1.0000 </r>
       <r>  -22.4583    1.0000 </r>
       <r>  -22.4404    1.0000 </r>
       <r>  -22.4339    1.0000 </r>
       <r>  -22.4126    1.0000 </r>
       <r>  -22.3962    1.0000 </r>
       <r>  -22.3884    1.0000 </r>
       <r>  -22.3390    1.0000 </r>
       <r>  -22.3102    1.0000 </r>
       <r>  -22.2784    1.0000 </r>
       <r>  -22.2745    1.0000 </r>
       <r>  -22.2604    1.0000 </r>
       <r>  -22.2473    1.0000 </r>
       <r>  -22.2191    1.0000 </r>
       <r>  -21.9802    1.0000 </r>
       <r>  -21.4166    1.0000 </r>
       <r>  -21.3844    1.0000 </r>
       <r>  -16.6929    1.0000 </r>
       <r>  -16.6621    1.0000 </r>
       <r>   -6.3507    1.0000 </r>
       <r>   -6.2299    1.0000 </r>
       <r>   -6.0700    1.0000 </r>
       <r>   -5.9953    1.0000 </r>
       <r>   -5.8161    1.0000 </r>
       <r>   -5.5961    1.0000 </r>
       <r>   -5.5406    1.0000 </r>
       <r>   -5.4304    1.0000 </r>
       <r>   -5.4113    1.0000 </r>
       <r>   -5.2382    1.0000 </r>
       <r>   -4.8079    1.0000 </r>
       <r>   -4.7718    1.0000 </r>
       <r>   -4.6977    1.0000 </r>
       <r>   -4.6444    1.0000 </r>
       <r>   -4.6109    1.0000 </r>
       <r>   -4.5151    1.0000 </r>
       <r>   -4.4927    1.0000 </r>
       <r>   -4.4765    1.0000 </r>
       <r>   -4.4629    1.0000 </r>
       <r>   -4.4527    1.0000 </r>
       <r>   -4.4354    1.0000 </r>
       <r>   -4.4213    1.0000 </r>
       <r>   -4.4174    1.0000 </r>
       <r>   -4.3692    1.0000 </r>
       <r>   -4.3367    1.0000 </r>
       <r>   -4.3325    1.0000 </r>
       <r>   -4.3136    1.0000 </r>
       <r>   -4.2867    1.0000 </r>
       <r>   -4.2765    1.0000 </r>
       <r>   -4.2485    1.0000 </r>
       <r>   -4.2318    1.0000 </r>
       <r>   -4.2282    1.0000 </r>
       <r>   -4.2041    1.0000 </r>
       <r>   -4.1675    1.0000 </r>
       <r>   -4.1515    1.0000 </r>
       <r>   -4.0649    1.0000 </r>
       <r>   -4.0647    1.0000 </r>
       <r>   -3.9870    1.0000 </r>
       <r>   -3.9592    1.0000 </r>
       <r>   -3.8333    1.0000 </r>
       <r>   -3.7245    1.0000 </r>
       <r>   -3.6964    1.0000 </r>
       <r>   -3.6656    1.0000 </r>
       <r>   -3.6546    1.0000 </r>
       <r>   -3.6215    1.0000 </r>
       <r>   -3.6053    1.0000 </r>
       <r>   -3.5137    1.0000 </r>
       <r>   -3.4592    1.0000 </r>
       <r>   -3.4021    1.0000 </r>
       <r>   -3.3826    1.0000 </r>
       <r>   -3.3602    1.0000 </r>
       <r>   -3.3437    1.0000 </r>
       <r>   -3.2978    1.0000 </r>
       <r>   -3.2864    1.0000 </r>
       <r>   -3.2825    1.0000 </r>
       <r>   -3.2224    1.0000 </r>
       <r>   -3.1956    1.0000 </r>
       <r>   -3.1172    1.0000 </r>
       <r>   -3.1149    1.0000 </r>
       <r>   -3.0220    1.0000 </r>
       <r>   -2.9499    1.0000 </r>
       <r>   -2.9181    1.0000 </r>
       <r>   -2.7609    1.0000 </r>
       <r>   -2.6804    1.0000 </r>
       <r>   -2.3245    1.0000 </r>
       <r>   -2.3081    1.0000 </r>
       <r>   -2.2812    1.0000 </r>
       <r>   -2.2498    1.0000 </r>
       <r>   -2.1308    1.0000 </r>
       <r>   -2.0588    1.0000 </r>
       <r>   -1.4433    1.0000 </r>
       <r>   -1.4276    1.0000 </r>
       <r>    0.7842    1.0000 </r>
       <r>    0.8444    1.0000 </r>
       <r>    0.9046    1.0000 </r>
       <r>    0.9186    1.0000 </r>
       <r>    0.9480    1.0000 </r>
       <r>    0.9600    1.0000 </r>
       <r>    0.9731    1.0000 </r>
       <r>    1.0010    1.0001 </r>
       <r>    1.0151    1.0001 </r>
       <r>    1.0215    1.0002 </r>
       <r>    1.0405    1.0003 </r>
       <r>    1.0607    1.0004 </r>
       <r>    1.0929    1.0010 </r>
       <r>    1.1017    1.0012 </r>
       <r>    1.1447    1.0029 </r>
       <r>    1.1636    1.0042 </r>
       <r>    1.1821    1.0058 </r>
       <r>    1.1881    1.0064 </r>
       <r>    1.1961    1.0074 </r>
       <r>    1.2031    1.0083 </r>
       <r>    1.2055    1.0086 </r>
       <r>    1.2108    1.0093 </r>
       <r>    1.2138    1.0098 </r>
       <r>    1.2194    1.0106 </r>
       <r>    1.2232    1.0112 </r>
       <r>    1.2824    1.0234 </r>
       <r>    1.2989    1.0272 </r>
       <r>    1.3205    1.0317 </r>
       <r>    1.3853    1.0315 </r>
       <r>    1.4392    0.9923 </r>
       <r>    1.5086    0.8486 </r>
       <r>    1.5135    0.8341 </r>
       <r>    1.5636    0.6554 </r>
       <r>    1.6155    0.4391 </r>
       <r>    1.6257    0.3966 </r>
       <r>    1.6628    0.2520 </r>
       <r>    1.7183    0.0863 </r>
       <r>    1.7966   -0.0227 </r>
       <r>    1.8036   -0.0264 </r>
       <r>    1.9178   -0.0238 </r>
       <r>    1.9432   -0.0181 </r>
       <r>    2.0329   -0.0046 </r>
       <r>    2.1156   -0.0008 </r>
       <r>    2.1877   -0.0001 </r>
       <r>    2.1908   -0.0001 </r>
       <r>    2.2392   -0.0000 </r>
       <r>    2.2465   -0.0000 </r>
       <r>    2.3144   -0.0000 </r>
       <r>    2.3191   -0.0000 </r>
       <r>    2.3297   -0.0000 </r>
       <r>    2.3957   -0.0000 </r>
       <r>    2.3980   -0.0000 </r>
       <r>    2.4009   -0.0000 </r>
       <r>    2.4038   -0.0000 </r>
       <r>    2.4112   -0.0000 </r>
       <r>    2.8091   -0.0000 </r>
       <r>    2.9049   -0.0000 </r>
       <r>    3.0640   -0.0000 </r>
       <r>    3.1300   -0.0000 </r>
       <r>    3.1932   -0.0000 </r>
       <r>    4.0656   -0.0000 </r>
      </set>
      <set comment="kpoint 2">
       <r>  -22.8072    1.0000 </r>
       <r>  -22.7464    1.0000 </r>
       <r>  -22.5704    1.0000 </r>
       <r>  -22.5449    1.0000 </r>
       <r>  -22.5281    1.0000 </r>
       <r>  -22.4272    1.0000 </r>
       <r>  -22.4031    1.0000 </r>
       <r>  -22.3975    1.0000 </r>
       <r>  -22.3911    1.0000 </r>
       <r>  -22.3818    1.0000 </r>
       <r>  -22.3644    1.0000 </r>
       <r>  -22.3482    1.0000 </r>
       <r>  -22.3269    1.0000 </r>
       <r>  -22.2852    1.0000 </r>
       <r>  -22.2725    1.0000 </r>
       <r>  -22.2495    1.0000 </r>
       <r>  -22.2229    1.0000 </r>
       <r>  -22.2197    1.0000 </r>
       <r>  -22.2084    1.0000 </r>
       <r>  -21.9390    1.0000 </r>
       <r>  -21.3725    1.0000 </r>
       <r>  -21.3410    1.0000 </r>
       <r>  -16.5311    1.0000 </r>
       <r>  -16.5074    1.0000 </r>
       <r>   -5.9116    1.0000 </r>
       <r>   -5.8552    1.0000 </r>
       <r>   -5.8191    1.0000 </r>
       <r>   -5.6914    1.0000 </r>
       <r>   -5.6422    1.0000 </r>
       <r>   -5.5791    1.0000 </r>
       <r>   -5.4532    1.0000 </r>
       <r>   -5.3586    1.0000 </r>
       <r>   -5.2958    1.0000 </r>
       <r>   -5.2495    1.0000 </r>
       <r>   -5.1525    1.0000 </r>
       <r>   -5.1443    1.0000 </r>
       <r>   -5.0965    1.0000 </r>
       <r>   -5.0920    1.0000 </r>
       <r>   -5.0548    1.0000 </r>
       <r>   -4.9942    1.0000 </r>
       <r>   -4.9737    1.0000 </r>
       <r>   -4.9119    1.0000 </r>
       <r>   -4.8710    1.0000 </r>
       <r>   -4.8390    1.0000 </r>
       <r>   -4.8187    1.0000 </r>
       <r>   -4.7646    1.0000 </r>
       <r>   -4.7331    1.0000 </r>
       <r>   -4.7221    1.0000 </r>
       <r>   -4.6916    1.0000 </r>
       <r>   -4.6233    1.0000 </r>
       <r>   -4.4858    1.0000 </r>
       <r>   -4.4737    1.0000 </r>
       <r>   -4.4425    1.0000 </r>
       <r>   -4.3896    1.0000 </r>
       <r>   -4.3817    1.0000 </r>
       <r>   -4.3596    1.0000 </r>
       <r>   -4.3585    1.0000 </r>
       <r>   -4.3456    1.0000 </r>
       <r>   -4.3290    1.0000 </r>
       <r>   -4.2714    1.0000 </r>
       <r>   -4.2535    1.0000 </r>
       <r>   -4.2358    1.0000 </r>
       <r>   -4.1519    1.0000 </r>
       <r>   -4.1243    1.0000 </r>
       <r>   -4.0629    1.0000 </r>
       <r>   -3.9193    1.0000 </r>
       <r>   -3.8352    1.0000 </r>
       <r>   -3.7966    1.0000 </r>
       <r>   -3.6521    1.0000 </r>
       <r>   -3.6472    1.0000 </r>
       <r>   -3.6269    1.0000 </r>
       <r>   -3.5953    1.0000 </r>
       <r>   -3.5271    1.0000 </r>
       <r>   -3.4078    1.0000 </r>
       <r>   -3.4011    1.0000 </r>
       <r>   -3.2979    1.0000 </r>
       <r>   -3.2951    1.0000 </r>
       <r>   -3.2683    1.0000 </r>
       <r>   -3.2384    1.0000 </r>
       <r>   -3.1901    1.0000 </r>
       <r>   -3.1572    1.0000 </r>
       <r>   -3.1135    1.0000 </r>
       <r>   -3.1071    1.0000 </r>
       <r>   -3.0747    1.0000 </r>
       <r>   -3.0554    1.0000 </r>
       <r>   -3.0366    1.0000 </r>
       <r>   -3.0194    1.0000 </r>
       <r>   -2.8537    1.0000 </r>
       <r>   -2.4969    1.0000 </r>
       <r>   -2.4436    1.0000 </r>
       <r>   -2.4015    1.0000 </r>
       <r>   -2.3622    1.0000 </r>
       <r>   -2.3490    1.0000 </r>
       <r>   -2.3214    1.0000 </r>
       <r>   -1.6765    1.0000 </r>
       <r>   -1.6465    1.0000 </r>
       <r>    0.9535    1.0000 </r>
       <r>    0.9857    1.0001 </r>
       <r>    1.0053    1.0001 </r>
       <r>    1.0177    1.0001 </r>
       <r>    1.0184    1.0002 </r>
       <r>    1.0483    1.0003 </r>
       <r>    1.1572    1.0037 </r>
       <r>    1.1763    1.0052 </r>
       <r>    1.2103    1.0093 </r>
       <r>    1.2524    1.0167 </r>
       <r>    1.2578    1.0179 </r>
       <r>    1.2723    1.0211 </r>
       <r>    1.2771    1.0222 </r>
       <r>    1.2924    1.0257 </r>
       <r>    1.3081    1.0292 </r>
       <r>    1.3098    1.0296 </r>
       <r>    1.3269    1.0328 </r>
       <r>    1.3493    1.0353 </r>
       <r>    1.3726    1.0343 </r>
       <r>    1.3856    1.0314 </r>
       <r>    1.3894    1.0302 </r>
       <r>    1.4002    1.0256 </r>
       <r>    1.4044    1.0233 </r>
       <r>    1.4059    1.0224 </r>
       <r>    1.4122    1.0183 </r>
       <r>    1.4150    1.0163 </r>
       <r>    1.4210    1.0114 </r>
       <r>    1.4218    1.0108 </r>
       <r>    1.4225    1.0101 </r>
       <r>    1.4293    1.0036 </r>
       <r>    1.4903    0.8983 </r>
       <r>    1.5091    0.8473 </r>
       <r>    1.5376    0.7541 </r>
       <r>    1.5629    0.6580 </r>
       <r>    1.6141    0.4448 </r>
       <r>    1.6221    0.4116 </r>
       <r>    1.6251    0.3989 </r>
       <r>    1.6377    0.3479 </r>
       <r>    1.6904    0.1605 </r>
       <r>    1.7052    0.1189 </r>
       <r>    1.8746   -0.0329 </r>
       <r>    1.8890   -0.0302 </r>
       <r>    1.9155   -0.0244 </r>
       <r>    1.9191   -0.0235 </r>
       <r>    1.9198   -0.0234 </r>
       <r>    1.9281   -0.0214 </r>
       <r>    1.9313   -0.0207 </r>
       <r>    1.9468   -0.0173 </r>
       <r>    2.1587   -0.0003 </r>
       <r>    2.2236   -0.0000 </r>
       <r>    2.2740   -0.0000 </r>
       <r>    2.2964   -0.0000 </r>
       <r>    2.3202   -0.0000 </r>
       <r>    2.3314   -0.0000 </r>
       <r>    2.3425   -0.0000 </r>
       <r>    2.3620   -0.0000 </r>
       <r>    2.5606   -0.0000 </r>
       <r>    2.5693   -0.0000 </r>
       <r>    2.6153   -0.0000 </r>
       <r>    2.6357   -0.0000 </r>
       <r>    8.5011    0.0000 </r>
      </set>
      <set comment="kpoint 3">
       <r>  -23.0141    1.0000 </r>
       <r>  -22.8398    1.0000 </r>
       <r>  -22.8130    1.0000 </r>
       <r>  -22.7090    1.0000 </r>
       <r>  -22.6961    1.0000 </r>
       <r>  -22.4658    1.0000 </r>
       <r>  -22.4529    1.0000 </r>
       <r>  -22.4406    1.0000 </r>
       <r>  -22.4339    1.0000 </r>
       <r>  -22.4128    1.0000 </r>
       <r>  -22.3964    1.0000 </r>
       <r>  -22.3901    1.0000 </r>
       <r>  -22.3306    1.0000 </r>
       <r>  -22.3157    1.0000 </r>
       <r>  -22.2857    1.0000 </r>
       <r>  -22.2692    1.0000 </r>
       <r>  -22.2572    1.0000 </r>
       <r>  -22.2456    1.0000 </r>
       <r>  -22.2196    1.0000 </r>
       <r>  -21.9795    1.0000 </r>
       <r>  -21.4161    1.0000 </r>
       <r>  -21.3839    1.0000 </r>
       <r>  -16.6928    1.0000 </r>
       <r>  -16.6619    1.0000 </r>
       <r>   -6.3387    1.0000 </r>
       <r>   -6.2525    1.0000 </r>
       <r>   -6.0479    1.0000 </r>
       <r>   -6.0050    1.0000 </r>
       <r>   -5.7983    1.0000 </r>
       <r>   -5.6621    1.0000 </r>
       <r>   -5.5276    1.0000 </r>
       <r>   -5.4330    1.0000 </r>
       <r>   -5.3281    1.0000 </r>
       <r>   -5.2666    1.0000 </r>
       <r>   -4.8156    1.0000 </r>
       <r>   -4.7804    1.0000 </r>
       <r>   -4.7217    1.0000 </r>
       <r>   -4.6504    1.0000 </r>
       <r>   -4.6100    1.0000 </r>
       <r>   -4.5053    1.0000 </r>
       <r>   -4.4912    1.0000 </r>
       <r>   -4.4669    1.0000 </r>
       <r>   -4.4583    1.0000 </r>
       <r>   -4.4533    1.0000 </r>
       <r>   -4.4355    1.0000 </r>
       <r>   -4.4176    1.0000 </r>
       <r>   -4.4139    1.0000 </r>
       <r>   -4.3897    1.0000 </r>
       <r>   -4.3357    1.0000 </r>
       <r>   -4.3188    1.0000 </r>
       <r>   -4.2997    1.0000 </r>
       <r>   -4.2875    1.0000 </r>
       <r>   -4.2760    1.0000 </r>
       <r>   -4.2561    1.0000 </r>
       <r>   -4.2463    1.0000 </r>
       <r>   -4.2242    1.0000 </r>
       <r>   -4.1911    1.0000 </r>
       <r>   -4.1635    1.0000 </r>
       <r>   -4.1339    1.0000 </r>
       <r>   -4.0842    1.0000 </r>
       <r>   -4.0619    1.0000 </r>
       <r>   -4.0146    1.0000 </r>
       <r>   -3.9121    1.0000 </r>
       <r>   -3.8605    1.0000 </r>
       <r>   -3.7123    1.0000 </r>
       <r>   -3.6943    1.0000 </r>
       <r>   -3.6728    1.0000 </r>
       <r>   -3.6457    1.0000 </r>
       <r>   -3.6205    1.0000 </r>
       <r>   -3.5638    1.0000 </r>
       <r>   -3.5308    1.0000 </r>
       <r>   -3.5067    1.0000 </r>
       <r>   -3.3992    1.0000 </r>
       <r>   -3.3834    1.0000 </r>
       <r>   -3.3452    1.0000 </r>
       <r>   -3.3320    1.0000 </r>
       <r>   -3.3123    1.0000 </r>
       <r>   -3.2868    1.0000 </r>
       <r>   -3.2831    1.0000 </r>
       <r>   -3.2254    1.0000 </r>
       <r>   -3.2012    1.0000 </r>
       <r>   -3.1443    1.0000 </r>
       <r>   -3.0622    1.0000 </r>
       <r>   -3.0003    1.0000 </r>
       <r>   -2.9658    1.0000 </r>
       <r>   -2.9484    1.0000 </r>
       <r>   -2.7324    1.0000 </r>
       <r>   -2.6986    1.0000 </r>
       <r>   -2.3238    1.0000 </r>
       <r>   -2.2968    1.0000 </r>
       <r>   -2.2807    1.0000 </r>
       <r>   -2.2605    1.0000 </r>
       <r>   -2.1299    1.0000 </r>
       <r>   -2.0581    1.0000 </r>
       <r>   -1.4427    1.0000 </r>
       <r>   -1.4285    1.0000 </r>
       <r>    0.7847    1.0000 </r>
       <r>    0.8451    1.0000 </r>
       <r>    0.9368    1.0000 </r>
       <r>    0.9407    1.0000 </r>
       <r>    0.9480    1.0000 </r>
       <r>    0.9559    1.0000 </r>
       <r>    0.9600    1.0000 </r>
       <r>    0.9649    1.0000 </r>
       <r>    1.0097    1.0001 </r>
       <r>    1.0185    1.0002 </r>
       <r>    1.0497    1.0003 </r>
       <r>    1.0508    1.0004 </r>
       <r>    1.0928    1.0010 </r>
       <r>    1.1071    1.0013 </r>
       <r>    1.1356    1.0024 </r>
       <r>    1.1673    1.0045 </r>
       <r>    1.1822    1.0058 </r>
       <r>    1.1876    1.0064 </r>
       <r>    1.1962    1.0074 </r>
       <r>    1.1993    1.0078 </r>
       <r>    1.2041    1.0084 </r>
       <r>    1.2053    1.0086 </r>
       <r>    1.2117    1.0095 </r>
       <r>    1.2207    1.0108 </r>
       <r>    1.2603    1.0184 </r>
       <r>    1.2768    1.0221 </r>
       <r>    1.2918    1.0255 </r>
       <r>    1.3042    1.0284 </r>
       <r>    1.4192    1.0130 </r>
       <r>    1.4204    1.0120 </r>
       <r>    1.5190    0.8170 </r>
       <r>    1.5286    0.7855 </r>
       <r>    1.5475    0.7179 </r>
       <r>    1.5563    0.6843 </r>
       <r>    1.6693    0.2289 </r>
       <r>    1.6733    0.2152 </r>
       <r>    1.7560    0.0167 </r>
       <r>    1.7611    0.0099 </r>
       <r>    1.8332   -0.0348 </r>
       <r>    1.8407   -0.0353 </r>
       <r>    2.0086   -0.0071 </r>
       <r>    2.0143   -0.0064 </r>
       <r>    2.1678   -0.0002 </r>
       <r>    2.1706   -0.0002 </r>
       <r>    2.1711   -0.0002 </r>
       <r>    2.1829   -0.0002 </r>
       <r>    2.2830   -0.0000 </r>
       <r>    2.2856   -0.0000 </r>
       <r>    2.2933   -0.0000 </r>
       <r>    2.2968   -0.0000 </r>
       <r>    2.3956   -0.0000 </r>
       <r>    2.3981   -0.0000 </r>
       <r>    2.4007   -0.0000 </r>
       <r>    2.4038   -0.0000 </r>
       <r>    2.6212   -0.0000 </r>
       <r>    2.6240   -0.0000 </r>
       <r>    3.0128   -0.0000 </r>
       <r>    3.0164   -0.0000 </r>
       <r>    3.1303   -0.0000 </r>
       <r>    3.1958   -0.0000 </r>
       <r>    4.2102   -0.0000 </r>
      </set>
      <set comment="kpoint 4">
       <r>  -22.8068    1.0000 </r>
       <r>  -22.7460    1.0000 </r>
       <r>  -22.5700    1.0000 </r>
       <r>  -22.5441    1.0000 </r>
       <r>  -22.5281    1.0000 </r>
       <r>  -22.4266    1.0000 </r>
       <r>  -22.4019    1.0000 </r>
       <r>  -22.3975    1.0000 </r>
       <r>  -22.3926    1.0000 </r>
       <r>  -22.3807    1.0000 </r>
       <r>  -22.3645    1.0000 </r>
       <r>  -22.3455    1.0000 </r>
       <r>  -22.3265    1.0000 </r>
       <r>  -22.2861    1.0000 </r>
       <r>  -22.2715    1.0000 </r>
       <r>  -22.2493    1.0000 </r>
       <r>  -22.2209    1.0000 </r>
       <r>  -22.2193    1.0000 </r>
       <r>  -22.2084    1.0000 </r>
       <r>  -21.9385    1.0000 </r>
       <r>  -21.3720    1.0000 </r>
       <r>  -21.3405    1.0000 </r>
       <r>  -16.5309    1.0000 </r>
       <r>  -16.5072    1.0000 </r>
       <r>   -5.9111    1.0000 </r>
       <r>   -5.8434    1.0000 </r>
       <r>   -5.8190    1.0000 </r>
       <r>   -5.7249    1.0000 </r>
       <r>   -5.6345    1.0000 </r>
       <r>   -5.5865    1.0000 </r>
       <r>   -5.3767    1.0000 </r>
       <r>   -5.3582    1.0000 </r>
       <r>   -5.3041    1.0000 </r>
       <r>   -5.2787    1.0000 </r>
       <r>   -5.2004    1.0000 </r>
       <r>   -5.1607    1.0000 </r>
       <r>   -5.1122    1.0000 </r>
       <r>   -5.0579    1.0000 </r>
       <r>   -5.0509    1.0000 </r>
       <r>   -4.9807    1.0000 </r>
       <r>   -4.9123    1.0000 </r>
       <r>   -4.8885    1.0000 </r>
       <r>   -4.8694    1.0000 </r>
       <r>   -4.8488    1.0000 </r>
       <r>   -4.8348    1.0000 </r>
       <r>   -4.7595    1.0000 </r>
       <r>   -4.7407    1.0000 </r>
       <r>   -4.7128    1.0000 </r>
       <r>   -4.7079    1.0000 </r>
       <r>   -4.7004    1.0000 </r>
       <r>   -4.5086    1.0000 </r>
       <r>   -4.4579    1.0000 </r>
       <r>   -4.3941    1.0000 </r>
       <r>   -4.3880    1.0000 </r>
       <r>   -4.3586    1.0000 </r>
       <r>   -4.3464    1.0000 </r>
       <r>   -4.3380    1.0000 </r>
       <r>   -4.3205    1.0000 </r>
       <r>   -4.3151    1.0000 </r>
       <r>   -4.3002    1.0000 </r>
       <r>   -4.2858    1.0000 </r>
       <r>   -4.2439    1.0000 </r>
       <r>   -4.1647    1.0000 </r>
       <r>   -4.1358    1.0000 </r>
       <r>   -4.0379    1.0000 </r>
       <r>   -3.9544    1.0000 </r>
       <r>   -3.8335    1.0000 </r>
       <r>   -3.7943    1.0000 </r>
       <r>   -3.6510    1.0000 </r>
       <r>   -3.6495    1.0000 </r>
       <r>   -3.6193    1.0000 </r>
       <r>   -3.5734    1.0000 </r>
       <r>   -3.5255    1.0000 </r>
       <r>   -3.4024    1.0000 </r>
       <r>   -3.4003    1.0000 </r>
       <r>   -3.2993    1.0000 </r>
       <r>   -3.2980    1.0000 </r>
       <r>   -3.2885    1.0000 </r>
       <r>   -3.2461    1.0000 </r>
       <r>   -3.2071    1.0000 </r>
       <r>   -3.1325    1.0000 </r>
       <r>   -3.1117    1.0000 </r>
       <r>   -3.1070    1.0000 </r>
       <r>   -3.0690    1.0000 </r>
       <r>   -3.0548    1.0000 </r>
       <r>   -3.0365    1.0000 </r>
       <r>   -3.0170    1.0000 </r>
       <r>   -2.8573    1.0000 </r>
       <r>   -2.4967    1.0000 </r>
       <r>   -2.4429    1.0000 </r>
       <r>   -2.4011    1.0000 </r>
       <r>   -2.3620    1.0000 </r>
       <r>   -2.3484    1.0000 </r>
       <r>   -2.3217    1.0000 </r>
       <r>   -1.6764    1.0000 </r>
       <r>   -1.6465    1.0000 </r>
       <r>    0.9499    1.0000 </r>
       <r>    0.9855    1.0001 </r>
       <r>    1.0049    1.0001 </r>
       <r>    1.0180    1.0001 </r>
       <r>    1.0241    1.0002 </r>
       <r>    1.0482    1.0003 </r>
       <r>    1.1668    1.0044 </r>
       <r>    1.1901    1.0067 </r>
       <r>    1.2043    1.0084 </r>
       <r>    1.2195    1.0106 </r>
       <r>    1.2530    1.0168 </r>
       <r>    1.2718    1.0210 </r>
       <r>    1.2839    1.0237 </r>
       <r>    1.2878    1.0246 </r>
       <r>    1.3015    1.0278 </r>
       <r>    1.3098    1.0295 </r>
       <r>    1.3353    1.0340 </r>
       <r>    1.3456    1.0351 </r>
       <r>    1.3864    1.0311 </r>
       <r>    1.3879    1.0307 </r>
       <r>    1.3988    1.0262 </r>
       <r>    1.4000    1.0256 </r>
       <r>    1.4057    1.0225 </r>
       <r>    1.4100    1.0199 </r>
       <r>    1.4172    1.0146 </r>
       <r>    1.4201    1.0122 </r>
       <r>    1.4234    1.0093 </r>
       <r>    1.4281    1.0048 </r>
       <r>    1.4292    1.0036 </r>
       <r>    1.4375    0.9944 </r>
       <r>    1.4591    0.9632 </r>
       <r>    1.4764    0.9301 </r>
       <r>    1.5500    0.7083 </r>
       <r>    1.5585    0.6754 </r>
       <r>    1.5762    0.6043 </r>
       <r>    1.5818    0.5812 </r>
       <r>    1.6925    0.1542 </r>
       <r>    1.7028    0.1253 </r>
       <r>    1.7437    0.0356 </r>
       <r>    1.7575    0.0146 </r>
       <r>    1.7877   -0.0168 </r>
       <r>    1.7938   -0.0209 </r>
       <r>    1.8750   -0.0328 </r>
       <r>    1.9155   -0.0244 </r>
       <r>    1.9202   -0.0233 </r>
       <r>    1.9278   -0.0215 </r>
       <r>    1.9313   -0.0207 </r>
       <r>    1.9468   -0.0173 </r>
       <r>    2.2343   -0.0000 </r>
       <r>    2.2492   -0.0000 </r>
       <r>    2.3158   -0.0000 </r>
       <r>    2.3206   -0.0000 </r>
       <r>    2.3355   -0.0000 </r>
       <r>    2.3436   -0.0000 </r>
       <r>    2.3480   -0.0000 </r>
       <r>    2.3611   -0.0000 </r>
       <r>    2.4556   -0.0000 </r>
       <r>    2.4565   -0.0000 </r>
       <r>    2.6716   -0.0000 </r>
       <r>    2.6766   -0.0000 </r>
       <r>    8.6314    0.0000 </r>
      </set>
      <set comment="kpoint 5">
       <r>  -22.9718    1.0000 </r>
       <r>  -22.8062    1.0000 </r>
       <r>  -22.7170    1.0000 </r>
       <r>  -22.7108    1.0000 </r>
       <r>  -22.7028    1.0000 </r>
       <r>  -22.5631    1.0000 </r>
       <r>  -22.5614    1.0000 </r>
       <r>  -22.5053    1.0000 </r>
       <r>  -22.4712    1.0000 </r>
       <r>  -22.4287    1.0000 </r>
       <r>  -22.3814    1.0000 </r>
       <r>  -22.3146    1.0000 </r>
       <r>  -22.3105    1.0000 </r>
       <r>  -22.3004    1.0000 </r>
       <r>  -22.2818    1.0000 </r>
       <r>  -22.2761    1.0000 </r>
       <r>  -22.2523    1.0000 </r>
       <r>  -22.2459    1.0000 </r>
       <r>  -22.2116    1.0000 </r>
       <r>  -21.9781    1.0000 </r>
       <r>  -21.4161    1.0000 </r>
       <r>  -21.3842    1.0000 </r>
       <r>  -16.7002    1.0000 </r>
       <r>  -16.6696    1.0000 </r>
       <r>   -6.0537    1.0000 </r>
       <r>   -5.9376    1.0000 </r>
       <r>   -5.8199    1.0000 </r>
       <r>   -5.7706    1.0000 </r>
       <r>   -5.6662    1.0000 </r>
       <r>   -5.5934    1.0000 </r>
       <r>   -5.4997    1.0000 </r>
       <r>   -5.4393    1.0000 </r>
       <r>   -5.4006    1.0000 </r>
       <r>   -5.3134    1.0000 </r>
       <r>   -4.7653    1.0000 </r>
       <r>   -4.6947    1.0000 </r>
       <r>   -4.6798    1.0000 </r>
       <r>   -4.6257    1.0000 </r>
       <r>   -4.6001    1.0000 </r>
       <r>   -4.5984    1.0000 </r>
       <r>   -4.5669    1.0000 </r>
       <r>   -4.5484    1.0000 </r>
       <r>   -4.5178    1.0000 </r>
       <r>   -4.4877    1.0000 </r>
       <r>   -4.4411    1.0000 </r>
       <r>   -4.4399    1.0000 </r>
       <r>   -4.4310    1.0000 </r>
       <r>   -4.4251    1.0000 </r>
       <r>   -4.4015    1.0000 </r>
       <r>   -4.3887    1.0000 </r>
       <r>   -4.3711    1.0000 </r>
       <r>   -4.2973    1.0000 </r>
       <r>   -4.2623    1.0000 </r>
       <r>   -4.2594    1.0000 </r>
       <r>   -4.2334    1.0000 </r>
       <r>   -4.1654    1.0000 </r>
       <r>   -4.1543    1.0000 </r>
       <r>   -4.1007    1.0000 </r>
       <r>   -4.0730    1.0000 </r>
       <r>   -4.0548    1.0000 </r>
       <r>   -4.0037    1.0000 </r>
       <r>   -3.9275    1.0000 </r>
       <r>   -3.8718    1.0000 </r>
       <r>   -3.8415    1.0000 </r>
       <r>   -3.8380    1.0000 </r>
       <r>   -3.7942    1.0000 </r>
       <r>   -3.7518    1.0000 </r>
       <r>   -3.7191    1.0000 </r>
       <r>   -3.7159    1.0000 </r>
       <r>   -3.6815    1.0000 </r>
       <r>   -3.6131    1.0000 </r>
       <r>   -3.5908    1.0000 </r>
       <r>   -3.5648    1.0000 </r>
       <r>   -3.5399    1.0000 </r>
       <r>   -3.5277    1.0000 </r>
       <r>   -3.5058    1.0000 </r>
       <r>   -3.3317    1.0000 </r>
       <r>   -3.3095    1.0000 </r>
       <r>   -3.1835    1.0000 </r>
       <r>   -3.1587    1.0000 </r>
       <r>   -3.1511    1.0000 </r>
       <r>   -3.0847    1.0000 </r>
       <r>   -3.0096    1.0000 </r>
       <r>   -2.9976    1.0000 </r>
       <r>   -2.9214    1.0000 </r>
       <r>   -2.8912    1.0000 </r>
       <r>   -2.8770    1.0000 </r>
       <r>   -2.8312    1.0000 </r>
       <r>   -2.8144    1.0000 </r>
       <r>   -2.7133    1.0000 </r>
       <r>   -2.4527    1.0000 </r>
       <r>   -2.4212    1.0000 </r>
       <r>   -2.2574    1.0000 </r>
       <r>   -2.2056    1.0000 </r>
       <r>   -1.4266    1.0000 </r>
       <r>   -1.4183    1.0000 </r>
       <r>    0.7840    1.0000 </r>
       <r>    0.8443    1.0000 </r>
       <r>    0.9368    1.0000 </r>
       <r>    0.9406    1.0000 </r>
       <r>    1.0364    1.0002 </r>
       <r>    1.0390    1.0003 </r>
       <r>    1.0552    1.0004 </r>
       <r>    1.0666    1.0005 </r>
       <r>    1.1086    1.0014 </r>
       <r>    1.1107    1.0014 </r>
       <r>    1.1130    1.0015 </r>
       <r>    1.1141    1.0015 </r>
       <r>    1.1719    1.0049 </r>
       <r>    1.2008    1.0080 </r>
       <r>    1.2069    1.0088 </r>
       <r>    1.2189    1.0106 </r>
       <r>    1.2255    1.0116 </r>
       <r>    1.2534    1.0169 </r>
       <r>    1.2653    1.0195 </r>
       <r>    1.2778    1.0223 </r>
       <r>    1.3487    1.0353 </r>
       <r>    1.3528    1.0354 </r>
       <r>    1.3612    1.0354 </r>
       <r>    1.3680    1.0349 </r>
       <r>    1.3685    1.0348 </r>
       <r>    1.3781    1.0333 </r>
       <r>    1.3798    1.0329 </r>
       <r>    1.3810    1.0327 </r>
       <r>    1.3841    1.0318 </r>
       <r>    1.3913    1.0295 </r>
       <r>    1.5222    0.8068 </r>
       <r>    1.5258    0.7949 </r>
       <r>    1.5280    0.7875 </r>
       <r>    1.5418    0.7388 </r>
       <r>    1.6419    0.3311 </r>
       <r>    1.6475    0.3092 </r>
       <r>    1.7505    0.0247 </r>
       <r>    1.7579    0.0141 </r>
       <r>    2.0453   -0.0037 </r>
       <r>    2.0654   -0.0025 </r>
       <r>    2.0677   -0.0024 </r>
       <r>    2.0801   -0.0018 </r>
       <r>    2.1882   -0.0001 </r>
       <r>    2.1895   -0.0001 </r>
       <r>    2.2384   -0.0000 </r>
       <r>    2.2433   -0.0000 </r>
       <r>    2.2442   -0.0000 </r>
       <r>    2.2449   -0.0000 </r>
       <r>    2.2463   -0.0000 </r>
       <r>    2.2490   -0.0000 </r>
       <r>    2.3182   -0.0000 </r>
       <r>    2.3198   -0.0000 </r>
       <r>    2.4297   -0.0000 </r>
       <r>    2.4369   -0.0000 </r>
       <r>    2.4816   -0.0000 </r>
       <r>    2.4871   -0.0000 </r>
       <r>    2.7231   -0.0000 </r>
       <r>    2.7321   -0.0000 </r>
       <r>    3.0078   -0.0000 </r>
       <r>    3.0841   -0.0000 </r>
       <r>    5.4347   -0.0000 </r>
      </set>
      <set comment="kpoint 6">
       <r>  -22.8071    1.0000 </r>
       <r>  -22.7391    1.0000 </r>
       <r>  -22.5258    1.0000 </r>
       <r>  -22.4961    1.0000 </r>
       <r>  -22.4949    1.0000 </r>
       <r>  -22.4744    1.0000 </r>
       <r>  -22.4344    1.0000 </r>
       <r>  -22.4322    1.0000 </r>
       <r>  -22.4035    1.0000 </r>
       <r>  -22.3793    1.0000 </r>
       <r>  -22.3769    1.0000 </r>
       <r>  -22.3460    1.0000 </r>
       <r>  -22.3249    1.0000 </r>
       <r>  -22.2814    1.0000 </r>
       <r>  -22.2762    1.0000 </r>
       <r>  -22.2525    1.0000 </r>
       <r>  -22.2299    1.0000 </r>
       <r>  -22.2280    1.0000 </r>
       <r>  -22.2102    1.0000 </r>
       <r>  -21.9407    1.0000 </r>
       <r>  -21.3722    1.0000 </r>
       <r>  -21.3407    1.0000 </r>
       <r>  -16.5358    1.0000 </r>
       <r>  -16.5121    1.0000 </r>
       <r>   -5.7428    1.0000 </r>
       <r>   -5.6396    1.0000 </r>
       <r>   -5.5905    1.0000 </r>
       <r>   -5.5573    1.0000 </r>
       <r>   -5.5319    1.0000 </r>
       <r>   -5.4230    1.0000 </r>
       <r>   -5.3633    1.0000 </r>
       <r>   -5.3614    1.0000 </r>
       <r>   -5.3603    1.0000 </r>
       <r>   -5.2720    1.0000 </r>
       <r>   -5.2450    1.0000 </r>
       <r>   -5.1809    1.0000 </r>
       <r>   -5.1755    1.0000 </r>
       <r>   -5.1229    1.0000 </r>
       <r>   -5.0641    1.0000 </r>
       <r>   -5.0460    1.0000 </r>
       <r>   -5.0071    1.0000 </r>
       <r>   -4.9322    1.0000 </r>
       <r>   -4.8997    1.0000 </r>
       <r>   -4.8862    1.0000 </r>
       <r>   -4.8371    1.0000 </r>
       <r>   -4.7957    1.0000 </r>
       <r>   -4.7677    1.0000 </r>
       <r>   -4.7015    1.0000 </r>
       <r>   -4.6592    1.0000 </r>
       <r>   -4.6172    1.0000 </r>
       <r>   -4.5747    1.0000 </r>
       <r>   -4.5602    1.0000 </r>
       <r>   -4.5457    1.0000 </r>
       <r>   -4.5381    1.0000 </r>
       <r>   -4.4363    1.0000 </r>
       <r>   -4.3945    1.0000 </r>
       <r>   -4.3667    1.0000 </r>
       <r>   -4.3474    1.0000 </r>
       <r>   -4.2787    1.0000 </r>
       <r>   -4.2756    1.0000 </r>
       <r>   -4.2615    1.0000 </r>
       <r>   -4.2450    1.0000 </r>
       <r>   -4.1851    1.0000 </r>
       <r>   -4.1508    1.0000 </r>
       <r>   -4.0905    1.0000 </r>
       <r>   -4.0685    1.0000 </r>
       <r>   -3.7440    1.0000 </r>
       <r>   -3.7236    1.0000 </r>
       <r>   -3.6174    1.0000 </r>
       <r>   -3.5094    1.0000 </r>
       <r>   -3.4668    1.0000 </r>
       <r>   -3.4285    1.0000 </r>
       <r>   -3.4192    1.0000 </r>
       <r>   -3.3606    1.0000 </r>
       <r>   -3.3524    1.0000 </r>
       <r>   -3.3310    1.0000 </r>
       <r>   -3.2853    1.0000 </r>
       <r>   -3.2470    1.0000 </r>
       <r>   -3.2439    1.0000 </r>
       <r>   -3.2353    1.0000 </r>
       <r>   -3.1959    1.0000 </r>
       <r>   -3.1436    1.0000 </r>
       <r>   -3.1410    1.0000 </r>
       <r>   -3.0658    1.0000 </r>
       <r>   -3.0362    1.0000 </r>
       <r>   -3.0307    1.0000 </r>
       <r>   -2.9713    1.0000 </r>
       <r>   -2.8311    1.0000 </r>
       <r>   -2.7810    1.0000 </r>
       <r>   -2.7134    1.0000 </r>
       <r>   -2.5825    1.0000 </r>
       <r>   -2.5683    1.0000 </r>
       <r>   -2.4068    1.0000 </r>
       <r>   -2.3897    1.0000 </r>
       <r>   -1.5600    1.0000 </r>
       <r>   -1.5348    1.0000 </r>
       <r>    0.8399    1.0000 </r>
       <r>    0.8770    1.0000 </r>
       <r>    0.9609    1.0000 </r>
       <r>    0.9791    1.0000 </r>
       <r>    0.9806    1.0001 </r>
       <r>    0.9919    1.0001 </r>
       <r>    1.0225    1.0002 </r>
       <r>    1.0323    1.0002 </r>
       <r>    1.0477    1.0003 </r>
       <r>    1.0574    1.0004 </r>
       <r>    1.1233    1.0019 </r>
       <r>    1.1499    1.0032 </r>
       <r>    1.2100    1.0092 </r>
       <r>    1.2257    1.0117 </r>
       <r>    1.3030    1.0281 </r>
       <r>    1.3145    1.0305 </r>
       <r>    1.3927    1.0289 </r>
       <r>    1.3941    1.0283 </r>
       <r>    1.4068    1.0219 </r>
       <r>    1.4081    1.0211 </r>
       <r>    1.4095    1.0201 </r>
       <r>    1.4120    1.0185 </r>
       <r>    1.4140    1.0171 </r>
       <r>    1.4161    1.0154 </r>
       <r>    1.4206    1.0118 </r>
       <r>    1.4208    1.0116 </r>
       <r>    1.4463    0.9831 </r>
       <r>    1.4502    0.9774 </r>
       <r>    1.4749    0.9334 </r>
       <r>    1.4799    0.9225 </r>
       <r>    1.5065    0.8548 </r>
       <r>    1.5098    0.8451 </r>
       <r>    1.5362    0.7590 </r>
       <r>    1.5406    0.7433 </r>
       <r>    1.5806    0.5860 </r>
       <r>    1.5913    0.5413 </r>
       <r>    1.6152    0.4404 </r>
       <r>    1.6195    0.4225 </r>
       <r>    1.6245    0.4016 </r>
       <r>    1.6311    0.3743 </r>
       <r>    1.6409    0.3352 </r>
       <r>    1.6482    0.3067 </r>
       <r>    1.6600    0.2621 </r>
       <r>    1.6630    0.2514 </r>
       <r>    1.8100   -0.0292 </r>
       <r>    1.8145   -0.0308 </r>
       <r>    1.9048   -0.0268 </r>
       <r>    1.9061   -0.0265 </r>
       <r>    2.2865   -0.0000 </r>
       <r>    2.2952   -0.0000 </r>
       <r>    2.6183   -0.0000 </r>
       <r>    2.6290   -0.0000 </r>
       <r>    2.6364   -0.0000 </r>
       <r>    2.6405   -0.0000 </r>
       <r>    2.6944   -0.0000 </r>
       <r>    2.6956   -0.0000 </r>
       <r>    2.7141   -0.0000 </r>
       <r>    2.7154   -0.0000 </r>
       <r>    2.7594   -0.0000 </r>
       <r>    2.8029   -0.0000 </r>
       <r>    9.0295    0.0000 </r>
      </set>
      <set comment="kpoint 7">
       <r>  -22.9715    1.0000 </r>
       <r>  -22.8060    1.0000 </r>
       <r>  -22.7171    1.0000 </r>
       <r>  -22.7109    1.0000 </r>
       <r>  -22.7028    1.0000 </r>
       <r>  -22.5617    1.0000 </r>
       <r>  -22.5612    1.0000 </r>
       <r>  -22.5061    1.0000 </r>
       <r>  -22.4712    1.0000 </r>
       <r>  -22.4283    1.0000 </r>
       <r>  -22.3813    1.0000 </r>
       <r>  -22.3150    1.0000 </r>
       <r>  -22.3099    1.0000 </r>
       <r>  -22.2992    1.0000 </r>
       <r>  -22.2839    1.0000 </r>
       <r>  -22.2726    1.0000 </r>
       <r>  -22.2523    1.0000 </r>
       <r>  -22.2456    1.0000 </r>
       <r>  -22.2115    1.0000 </r>
       <r>  -21.9776    1.0000 </r>
       <r>  -21.4158    1.0000 </r>
       <r>  -21.3840    1.0000 </r>
       <r>  -16.7001    1.0000 </r>
       <r>  -16.6695    1.0000 </r>
       <r>   -6.0454    1.0000 </r>
       <r>   -5.9064    1.0000 </r>
       <r>   -5.8533    1.0000 </r>
       <r>   -5.8357    1.0000 </r>
       <r>   -5.6283    1.0000 </r>
       <r>   -5.5372    1.0000 </r>
       <r>   -5.4997    1.0000 </r>
       <r>   -5.4617    1.0000 </r>
       <r>   -5.4006    1.0000 </r>
       <r>   -5.3120    1.0000 </r>
       <r>   -4.7772    1.0000 </r>
       <r>   -4.6983    1.0000 </r>
       <r>   -4.6853    1.0000 </r>
       <r>   -4.6250    1.0000 </r>
       <r>   -4.6030    1.0000 </r>
       <r>   -4.5987    1.0000 </r>
       <r>   -4.5762    1.0000 </r>
       <r>   -4.5493    1.0000 </r>
       <r>   -4.5170    1.0000 </r>
       <r>   -4.4861    1.0000 </r>
       <r>   -4.4404    1.0000 </r>
       <r>   -4.4392    1.0000 </r>
       <r>   -4.4276    1.0000 </r>
       <r>   -4.4053    1.0000 </r>
       <r>   -4.3984    1.0000 </r>
       <r>   -4.3908    1.0000 </r>
       <r>   -4.3821    1.0000 </r>
       <r>   -4.2948    1.0000 </r>
       <r>   -4.2657    1.0000 </r>
       <r>   -4.2588    1.0000 </r>
       <r>   -4.2281    1.0000 </r>
       <r>   -4.1655    1.0000 </r>
       <r>   -4.1537    1.0000 </r>
       <r>   -4.1311    1.0000 </r>
       <r>   -4.0519    1.0000 </r>
       <r>   -4.0093    1.0000 </r>
       <r>   -3.9822    1.0000 </r>
       <r>   -3.9293    1.0000 </r>
       <r>   -3.8647    1.0000 </r>
       <r>   -3.8512    1.0000 </r>
       <r>   -3.8310    1.0000 </r>
       <r>   -3.8095    1.0000 </r>
       <r>   -3.7824    1.0000 </r>
       <r>   -3.7585    1.0000 </r>
       <r>   -3.7279    1.0000 </r>
       <r>   -3.7178    1.0000 </r>
       <r>   -3.6065    1.0000 </r>
       <r>   -3.5857    1.0000 </r>
       <r>   -3.5699    1.0000 </r>
       <r>   -3.5059    1.0000 </r>
       <r>   -3.4547    1.0000 </r>
       <r>   -3.4161    1.0000 </r>
       <r>   -3.3961    1.0000 </r>
       <r>   -3.3614    1.0000 </r>
       <r>   -3.1832    1.0000 </r>
       <r>   -3.1586    1.0000 </r>
       <r>   -3.1554    1.0000 </r>
       <r>   -3.0991    1.0000 </r>
       <r>   -3.0083    1.0000 </r>
       <r>   -2.9597    1.0000 </r>
       <r>   -2.9337    1.0000 </r>
       <r>   -2.9169    1.0000 </r>
       <r>   -2.8610    1.0000 </r>
       <r>   -2.8314    1.0000 </r>
       <r>   -2.8159    1.0000 </r>
       <r>   -2.7134    1.0000 </r>
       <r>   -2.4522    1.0000 </r>
       <r>   -2.4208    1.0000 </r>
       <r>   -2.2579    1.0000 </r>
       <r>   -2.2062    1.0000 </r>
       <r>   -1.4268    1.0000 </r>
       <r>   -1.4187    1.0000 </r>
       <r>    0.7845    1.0000 </r>
       <r>    0.8449    1.0000 </r>
       <r>    0.9670    1.0000 </r>
       <r>    0.9729    1.0000 </r>
       <r>    0.9878    1.0001 </r>
       <r>    0.9921    1.0001 </r>
       <r>    1.0741    1.0006 </r>
       <r>    1.0816    1.0007 </r>
       <r>    1.1092    1.0014 </r>
       <r>    1.1107    1.0014 </r>
       <r>    1.1133    1.0015 </r>
       <r>    1.1142    1.0015 </r>
       <r>    1.1721    1.0049 </r>
       <r>    1.1948    1.0072 </r>
       <r>    1.1982    1.0076 </r>
       <r>    1.2178    1.0104 </r>
       <r>    1.2256    1.0116 </r>
       <r>    1.2528    1.0168 </r>
       <r>    1.2738    1.0214 </r>
       <r>    1.2832    1.0236 </r>
       <r>    1.3440    1.0349 </r>
       <r>    1.3509    1.0354 </r>
       <r>    1.3593    1.0354 </r>
       <r>    1.3643    1.0352 </r>
       <r>    1.3676    1.0349 </r>
       <r>    1.3687    1.0348 </r>
       <r>    1.3786    1.0332 </r>
       <r>    1.3812    1.0326 </r>
       <r>    1.4007    1.0253 </r>
       <r>    1.4140    1.0170 </r>
       <r>    1.4904    0.8980 </r>
       <r>    1.5002    0.8725 </r>
       <r>    1.5565    0.6835 </r>
       <r>    1.5663    0.6448 </r>
       <r>    1.6350    0.3587 </r>
       <r>    1.6391    0.3422 </r>
       <r>    1.7714   -0.0022 </r>
       <r>    1.7780   -0.0087 </r>
       <r>    1.9494   -0.0168 </r>
       <r>    1.9551   -0.0156 </r>
       <r>    2.1658   -0.0002 </r>
       <r>    2.1715   -0.0002 </r>
       <r>    2.2017   -0.0001 </r>
       <r>    2.2103   -0.0001 </r>
       <r>    2.2437   -0.0000 </r>
       <r>    2.2440   -0.0000 </r>
       <r>    2.2463   -0.0000 </r>
       <r>    2.2488   -0.0000 </r>
       <r>    2.2813   -0.0000 </r>
       <r>    2.2853   -0.0000 </r>
       <r>    2.2926   -0.0000 </r>
       <r>    2.2953   -0.0000 </r>
       <r>    2.3505   -0.0000 </r>
       <r>    2.3579   -0.0000 </r>
       <r>    2.5229   -0.0000 </r>
       <r>    2.5244   -0.0000 </r>
       <r>    2.7204   -0.0000 </r>
       <r>    2.7297   -0.0000 </r>
       <r>    3.0082   -0.0000 </r>
       <r>    3.0846   -0.0000 </r>
       <r>    5.5006   -0.0000 </r>
      </set>
      <set comment="kpoint 8">
       <r>  -22.8064    1.0000 </r>
       <r>  -22.7384    1.0000 </r>
       <r>  -22.5250    1.0000 </r>
       <r>  -22.4954    1.0000 </r>
       <r>  -22.4942    1.0000 </r>
       <r>  -22.4738    1.0000 </r>
       <r>  -22.4337    1.0000 </r>
       <r>  -22.4314    1.0000 </r>
       <r>  -22.4018    1.0000 </r>
       <r>  -22.3781    1.0000 </r>
       <r>  -22.3773    1.0000 </r>
       <r>  -22.3445    1.0000 </r>
       <r>  -22.3247    1.0000 </r>
       <r>  -22.2827    1.0000 </r>
       <r>  -22.2754    1.0000 </r>
       <r>  -22.2500    1.0000 </r>
       <r>  -22.2291    1.0000 </r>
       <r>  -22.2274    1.0000 </r>
       <r>  -22.2099    1.0000 </r>
       <r>  -21.9399    1.0000 </r>
       <r>  -21.3715    1.0000 </r>
       <r>  -21.3400    1.0000 </r>
       <r>  -16.5356    1.0000 </r>
       <r>  -16.5119    1.0000 </r>
       <r>   -5.7377    1.0000 </r>
       <r>   -5.6250    1.0000 </r>
       <r>   -5.5894    1.0000 </r>
       <r>   -5.5705    1.0000 </r>
       <r>   -5.5537    1.0000 </r>
       <r>   -5.4231    1.0000 </r>
       <r>   -5.3626    1.0000 </r>
       <r>   -5.3605    1.0000 </r>
       <r>   -5.3531    1.0000 </r>
       <r>   -5.2660    1.0000 </r>
       <r>   -5.2456    1.0000 </r>
       <r>   -5.1835    1.0000 </r>
       <r>   -5.1744    1.0000 </r>
       <r>   -5.1166    1.0000 </r>
       <r>   -5.0743    1.0000 </r>
       <r>   -5.0308    1.0000 </r>
       <r>   -4.9528    1.0000 </r>
       <r>   -4.9257    1.0000 </r>
       <r>   -4.9103    1.0000 </r>
       <r>   -4.9005    1.0000 </r>
       <r>   -4.8309    1.0000 </r>
       <r>   -4.8171    1.0000 </r>
       <r>   -4.7790    1.0000 </r>
       <r>   -4.7626    1.0000 </r>
       <r>   -4.6586    1.0000 </r>
       <r>   -4.6182    1.0000 </r>
       <r>   -4.5553    1.0000 </r>
       <r>   -4.5506    1.0000 </r>
       <r>   -4.5438    1.0000 </r>
       <r>   -4.5019    1.0000 </r>
       <r>   -4.4548    1.0000 </r>
       <r>   -4.3956    1.0000 </r>
       <r>   -4.3536    1.0000 </r>
       <r>   -4.3252    1.0000 </r>
       <r>   -4.2956    1.0000 </r>
       <r>   -4.2723    1.0000 </r>
       <r>   -4.2576    1.0000 </r>
       <r>   -4.2513    1.0000 </r>
       <r>   -4.1859    1.0000 </r>
       <r>   -4.1521    1.0000 </r>
       <r>   -4.0904    1.0000 </r>
       <r>   -4.0679    1.0000 </r>
       <r>   -3.7430    1.0000 </r>
       <r>   -3.7225    1.0000 </r>
       <r>   -3.6172    1.0000 </r>
       <r>   -3.5101    1.0000 </r>
       <r>   -3.4662    1.0000 </r>
       <r>   -3.4282    1.0000 </r>
       <r>   -3.4220    1.0000 </r>
       <r>   -3.3579    1.0000 </r>
       <r>   -3.3476    1.0000 </r>
       <r>   -3.3264    1.0000 </r>
       <r>   -3.2890    1.0000 </r>
       <r>   -3.2753    1.0000 </r>
       <r>   -3.2409    1.0000 </r>
       <r>   -3.2060    1.0000 </r>
       <r>   -3.1933    1.0000 </r>
       <r>   -3.1431    1.0000 </r>
       <r>   -3.1404    1.0000 </r>
       <r>   -3.0735    1.0000 </r>
       <r>   -3.0363    1.0000 </r>
       <r>   -3.0299    1.0000 </r>
       <r>   -2.9683    1.0000 </r>
       <r>   -2.8308    1.0000 </r>
       <r>   -2.7804    1.0000 </r>
       <r>   -2.7131    1.0000 </r>
       <r>   -2.5817    1.0000 </r>
       <r>   -2.5678    1.0000 </r>
       <r>   -2.4055    1.0000 </r>
       <r>   -2.3884    1.0000 </r>
       <r>   -1.5595    1.0000 </r>
       <r>   -1.5343    1.0000 </r>
       <r>    0.8398    1.0000 </r>
       <r>    0.8769    1.0000 </r>
       <r>    0.9475    1.0000 </r>
       <r>    0.9607    1.0000 </r>
       <r>    0.9971    1.0001 </r>
       <r>    1.0185    1.0002 </r>
       <r>    1.0231    1.0002 </r>
       <r>    1.0337    1.0002 </r>
       <r>    1.0472    1.0003 </r>
       <r>    1.0566    1.0004 </r>
       <r>    1.1418    1.0027 </r>
       <r>    1.1600    1.0039 </r>
       <r>    1.1745    1.0051 </r>
       <r>    1.1794    1.0056 </r>
       <r>    1.3484    1.0352 </r>
       <r>    1.3508    1.0354 </r>
       <r>    1.3882    1.0306 </r>
       <r>    1.3902    1.0299 </r>
       <r>    1.4071    1.0217 </r>
       <r>    1.4088    1.0206 </r>
       <r>    1.4098    1.0200 </r>
       <r>    1.4121    1.0184 </r>
       <r>    1.4140    1.0170 </r>
       <r>    1.4160    1.0156 </r>
       <r>    1.4206    1.0118 </r>
       <r>    1.4209    1.0115 </r>
       <r>    1.4248    1.0081 </r>
       <r>    1.4288    1.0041 </r>
       <r>    1.4746    0.9339 </r>
       <r>    1.4786    0.9253 </r>
       <r>    1.5064    0.8550 </r>
       <r>    1.5099    0.8449 </r>
       <r>    1.5372    0.7556 </r>
       <r>    1.5412    0.7411 </r>
       <r>    1.5804    0.5870 </r>
       <r>    1.5907    0.5438 </r>
       <r>    1.6141    0.4447 </r>
       <r>    1.6164    0.4352 </r>
       <r>    1.6185    0.4264 </r>
       <r>    1.6197    0.4217 </r>
       <r>    1.6244    0.4020 </r>
       <r>    1.6316    0.3723 </r>
       <r>    1.7570    0.0154 </r>
       <r>    1.7703   -0.0010 </r>
       <r>    1.8045   -0.0268 </r>
       <r>    1.8105   -0.0294 </r>
       <r>    1.8123   -0.0300 </r>
       <r>    1.8150   -0.0309 </r>
       <r>    2.4105   -0.0000 </r>
       <r>    2.4181   -0.0000 </r>
       <r>    2.4598   -0.0000 </r>
       <r>    2.4638   -0.0000 </r>
       <r>    2.6851   -0.0000 </r>
       <r>    2.6911   -0.0000 </r>
       <r>    2.7083   -0.0000 </r>
       <r>    2.7088   -0.0000 </r>
       <r>    2.7188   -0.0000 </r>
       <r>    2.7208   -0.0000 </r>
       <r>    2.7605   -0.0000 </r>
       <r>    2.8032   -0.0000 </r>
       <r>    8.9502    0.0000 </r>
      </set>
     </set>
    </set>
   </array>
  </eigenvalues>
  <separator name="orbital magnetization" >
   <v name="MAGDIPOLOUT">      0.00000000      0.00000000      0.00000000</v>
  </separator>
 </calculation>
 <structure name="finalpos" >
  <crystal>
   <varray name="basis" >
    <v>       3.25262800       0.00000000       0.00000000 </v>
    <v>       0.00000000      20.54938400       0.00000000 </v>
    <v>      -0.02531400       0.00000000       6.79221100 </v>
   </varray>
   <i name="volume">    453.98799923 </i>
   <varray name="rec_basis" >
    <v>       0.30744370       0.00000000       0.00114582 </v>
    <v>       0.00000000       0.04866326       0.00000000 </v>
    <v>       0.00000000       0.00000000       0.14722746 </v>
   </varray>
  </crystal>
  <varray name="positions" >
   <v>       0.00000000       0.16671900       0.50139100 </v>
   <v>       0.00000000       0.83328100       0.50139100 </v>
   <v>       0.00000000       0.66671900       0.00139100 </v>
   <v>       0.00000000       0.33328100       0.01097700 </v>
   <v>       0.50000000       0.16602100       0.00000400 </v>
   <v>       0.50000000       0.83397900       0.00000400 </v>
   <v>       0.50000000       0.66602100       0.50000400 </v>
   <v>       0.50000000       0.32830200       0.50000400 </v>
   <v>       0.00000000       0.00000000       0.01216200 </v>
   <v>       0.00000000       0.50000000       0.51216200 </v>
   <v>       0.50000000       0.00000000       0.47240000 </v>
   <v>       0.50000000       0.50000000       0.97240000 </v>
   <v>       0.00000000       0.00000000       0.30734300 </v>
   <v>       0.00000000       0.50000000       0.81436200 </v>
   <v>       0.00000000       0.16816900       0.20329900 </v>
   <v>       0.00000000       0.83183100       0.20329900 </v>
   <v>       0.00000000       0.66816900       0.70329900 </v>
   <v>       0.00000000       0.33183100       0.70329900 </v>
   <v>       0.00000000       0.16838200       0.79934600 </v>
   <v>       0.00000000       0.83161800       0.79934600 </v>
   <v>       0.00000000       0.66838200       0.29934600 </v>
   <v>       0.00000000       0.33161800       0.29934600 </v>
   <v>       0.50000000       0.06837200       0.99633700 </v>
   <v>       0.50000000       0.93162800       0.99633700 </v>
   <v>       0.50000000       0.56837200       0.49633700 </v>
   <v>       0.50980900       0.43162800       0.49633700 </v>
   <v>       0.50000000       0.09818400       0.50567900 </v>
   <v>       0.50000000       0.90181600       0.50567900 </v>
   <v>       0.50000000       0.59818400       0.00567900 </v>
   <v>       0.50000000       0.40100900       0.00240800 </v>
   <v>       0.50961200       0.23406000       0.50152500 </v>
   <v>       0.50000000       0.76594000       0.50152500 </v>
   <v>       0.50000000       0.73406000       0.00152500 </v>
   <v>       0.50932800       0.26594000       0.00152500 </v>
   <v>       0.00000000       0.00000000       0.69474100 </v>
   <v>       0.00000000       0.50000000       0.19474100 </v>
  </varray>
 </structure>
</modeling>
