<?xml version="1.0" encoding="ISO-8859-1"?>
<modeling>
 <generator>
  <i name="program" type="string">vasp </i>
  <i name="version" type="string">5.3.5  </i>
  <i name="subversion" type="string">31Mar14 (build Aug 29 2014 19:41:47) complex                          parallel </i>
  <i name="platform" type="string">LinuxIFC </i>
  <i name="date" type="string">2019 04 11 </i>
  <i name="time" type="string">16:02:50 </i>
 </generator>
 <incar>
  <i type="string" name="SYSTEM"> Fe6OF11_var_18</i>
  <i type="int" name="ISTART">     0</i>
  <i type="string" name="PREC">normal</i>
  <i type="string" name="ALGO"> VeryFast</i>
  <i type="int" name="ISPIN">     1</i>
  <i type="int" name="ICHARG">     2</i>
  <i type="int" name="NELM">   300</i>
  <i type="int" name="ISYM">     0</i>
  <i type="logical" name="LWAVE"> F  </i>
  <i type="int" name="NELM">   300</i>
 </incar>
 <kpoints>
  <generation param="Gamma">
   <v type="int" name="divisions">       1        1        1 </v>
   <v name="usershift">      0.00000000       0.00000000       0.00000000 </v>
   <v name="genvec1">      1.00000000       0.00000000       0.00000000 </v>
   <v name="genvec2">      0.00000000       1.00000000       0.00000000 </v>
   <v name="genvec3">      0.00000000       0.00000000       1.00000000 </v>
   <v name="shift">      0.00000000       0.00000000       0.00000000 </v>
  </generation>
  <varray name="kpointlist" >
   <v>       0.00000000       0.00000000       0.00000000 </v>
  </varray>
  <varray name="weights" >
   <v>       1.00000000 </v>
  </varray>
 </kpoints>
 <parameters>
  <separator name="general" >
   <i type="string" name="SYSTEM">Fe6OF11_var_18</i>
   <i type="logical" name="LCOMPAT"> F  </i>
  </separator>
  <separator name="electronic" >
   <i type="string" name="PREC">normal</i>
   <i name="ENMAX">    400.00000000</i>
   <i name="ENAUG">    613.61400000</i>
   <i name="EDIFF">      0.00010000</i>
   <i type="int" name="IALGO">    48</i>
   <i type="int" name="IWAVPR">    10</i>
   <i type="int" name="NBANDS">   160</i>
   <i name="NELECT">    262.00000000</i>
   <i type="int" name="TURBO">     0</i>
   <i type="int" name="IRESTART">     0</i>
   <i type="int" name="NREBOOT">     0</i>
   <i type="int" name="NMIN">     0</i>
   <i name="EREF">      0.00000000</i>
   <separator name="electronic smearing" >
    <i type="int" name="ISMEAR">     1</i>
    <i name="SIGMA">      0.20000000</i>
    <i name="KSPACING">      0.50000000</i>
    <i type="logical" name="KGAMMA"> T  </i>
   </separator>
   <separator name="electronic projectors" >
    <i type="logical" name="LREAL"> F  </i>
    <v name="ROPT">      0.00000000      0.00000000      0.00000000</v>
    <i type="int" name="LMAXPAW">  -100</i>
    <i type="int" name="LMAXMIX">     2</i>
    <i type="logical" name="NLSPLINE"> F  </i>
   </separator>
   <separator name="electronic startup" >
    <i type="int" name="ISTART">     0</i>
    <i type="int" name="ICHARG">     2</i>
    <i type="int" name="INIWAV">     1</i>
   </separator>
   <separator name="electronic spin" >
    <i type="int" name="ISPIN">     1</i>
    <i type="logical" name="LNONCOLLINEAR"> F  </i>
    <v name="MAGMOM">      1.00000000      1.00000000      1.00000000      1.00000000      1.00000000      1.00000000      1.00000000      1.00000000      1.00000000      1.00000000      1.00000000      1.00000000      1.00000000      1.00000000      1.00000000      1.00000000      1.00000000      1.00000000      1.00000000      1.00000000
      1.00000000      1.00000000      1.00000000      1.00000000      1.00000000      1.00000000      1.00000000      1.00000000      1.00000000      1.00000000      1.00000000      1.00000000      1.00000000      1.00000000      1.00000000      1.00000000</v>
    <i name="NUPDOWN">     -1.00000000</i>
    <i type="logical" name="LSORBIT"> F  </i>
    <v name="SAXIS">      0.00000000      0.00000000      1.00000000</v>
    <i type="logical" name="LSPIRAL"> F  </i>
    <v name="QSPIRAL">      0.00000000      0.00000000      0.00000000</v>
    <i type="logical" name="LZEROZ"> F  </i>
   </separator>
   <separator name="electronic exchange-correlation" >
    <i type="logical" name="LASPH"> F  </i>
    <i type="logical" name="LMETAGGA"> F  </i>
   </separator>
   <separator name="electronic convergence" >
    <i type="int" name="NELM">   300</i>
    <i type="int" name="NELMDL">   -12</i>
    <i type="int" name="NELMIN">     2</i>
    <i name="ENINI">    400.00000000</i>
    <separator name="electronic convergence detail" >
     <i type="logical" name="LDIAG"> T  </i>
     <i type="logical" name="LSUBROT"> F  </i>
     <i name="WEIMIN">      0.00000000</i>
     <i name="EBREAK">      0.00000016</i>
     <i name="DEPER">      0.30000000</i>
     <i type="int" name="NRMM">     4</i>
     <i name="TIME">      0.40000000</i>
    </separator>
   </separator>
   <separator name="electronic mixer" >
    <i name="AMIX">      0.40000000</i>
    <i name="BMIX">      1.00000000</i>
    <i name="AMIN">      0.10000000</i>
    <i name="AMIX_MAG">      1.60000000</i>
    <i name="BMIX_MAG">      1.00000000</i>
    <separator name="electronic mixer details" >
     <i type="int" name="IMIX">     4</i>
     <i type="int" name="MAXMIX">   -45</i>
     <i name="WC">    100.00000000</i>
     <i type="int" name="INIMIX">     1</i>
     <i type="int" name="MIXPRE">     1</i>
     <i type="int" name="MREMOVE">     5</i>
    </separator>
   </separator>
   <separator name="electronic dipolcorrection" >
    <i type="logical" name="LDIPOL"> F  </i>
    <i type="logical" name="LMONO"> F  </i>
    <i type="int" name="IDIPOL">     0</i>
    <i name="EPSILON">      1.00000000</i>
    <v name="DIPOL">   -100.00000000   -100.00000000   -100.00000000</v>
    <i name="EFIELD">      0.00000000</i>
   </separator>
  </separator>
  <separator name="grids" >
   <i type="int" name="NGX">    16</i>
   <i type="int" name="NGY">   108</i>
   <i type="int" name="NGZ">    36</i>
   <i type="int" name="NGXF">    32</i>
   <i type="int" name="NGYF">   216</i>
   <i type="int" name="NGZF">    72</i>
   <i type="logical" name="ADDGRID"> F  </i>
  </separator>
  <separator name="ionic" >
   <i type="int" name="NSW">     0</i>
   <i type="int" name="IBRION">    -1</i>
   <i type="int" name="ISIF">     2</i>
   <i name="PSTRESS">      0.00000000</i>
   <i name="EDIFFG">      0.00100000</i>
   <i type="int" name="NFREE">     0</i>
   <i name="POTIM">      0.50000000</i>
   <i name="SMASS">     -3.00000000</i>
   <i name="SCALEE">      1.00000000</i>
  </separator>
  <separator name="ionic md" >
   <i name="TEBEG">      0.00010000</i>
   <i name="TEEND">      0.00010000</i>
   <i type="int" name="NBLOCK">     1</i>
   <i type="int" name="KBLOCK">     1</i>
   <i type="int" name="NPACO">   256</i>
   <i name="APACO">     16.00000000</i>
  </separator>
  <separator name="symmetry" >
   <i type="int" name="ISYM">     0</i>
   <i name="SYMPREC">      0.00001000</i>
  </separator>
  <separator name="dos" >
   <i type="logical" name="LORBIT"> F  </i>
   <v name="RWIGS">     -1.00000000     -1.00000000     -1.00000000</v>
   <i type="int" name="NEDOS">   301</i>
   <i name="EMIN">     10.00000000</i>
   <i name="EMAX">    -10.00000000</i>
   <i name="EFERMI">      0.00000000</i>
  </separator>
  <separator name="writing" >
   <i type="int" name="NWRITE">     2</i>
   <i type="logical" name="LWAVE"> F  </i>
   <i type="logical" name="LCHARG"> T  </i>
   <i type="logical" name="LPARD"> F  </i>
   <i type="logical" name="LVTOT"> F  </i>
   <i type="logical" name="LVHAR"> F  </i>
   <i type="logical" name="LELF"> F  </i>
   <i type="logical" name="LOPTICS"> F  </i>
   <v name="STM">      0.00000000      0.00000000      0.00000000      0.00000000      0.00000000      0.00000000      0.00000000</v>
  </separator>
  <separator name="performance" >
   <i type="int" name="NPAR">     4</i>
   <i type="int" name="NSIM">     4</i>
   <i type="int" name="NBLK">    -1</i>
   <i type="logical" name="LPLANE"> T  </i>
   <i type="logical" name="LSCALAPACK"> T  </i>
   <i type="logical" name="LSCAAWARE"> F  </i>
   <i type="logical" name="LSCALU"> F  </i>
   <i type="logical" name="LASYNC"> F  </i>
   <i type="logical" name="LORBITALREAL"> F  </i>
  </separator>
  <separator name="miscellaneous" >
   <i type="int" name="IDIOT">     3</i>
   <i type="logical" name="LMUSIC"> F  </i>
   <v name="POMASS">     55.84700000     16.00000000     18.99800000</v>
   <v name="DARWINR">      0.00000000      0.00000000      0.00000000</v>
   <v name="DARWINV">      1.00000000      1.00000000      1.00000000</v>
   <i type="logical" name="LCORR"> T  </i>
  </separator>
  <i type="logical" name="GGA_COMPAT"> T  </i>
  <i type="logical" name="LBERRY"> F  </i>
  <i type="int" name="ICORELEVEL">     0</i>
  <i type="logical" name="LDAU"> F  </i>
  <i type="int" name="I_CONSTRAINED_M">     0</i>
  <separator name="electronic exchange-correlation" >
   <i type="string" name="GGA">--</i>
   <i type="int" name="VOSKOWN">     0</i>
   <i type="logical" name="LHFCALC"> F  </i>
   <i type="string" name="PRECFOCK"></i>
   <i type="logical" name="LSYMGRAD"> F  </i>
   <i type="logical" name="LHFONE"> F  </i>
   <i type="logical" name="LRHFCALC"> F  </i>
   <i type="logical" name="LTHOMAS"> F  </i>
   <i type="logical" name="LMODELHF"> F  </i>
   <i name="ENCUT4O">     -1.00000000</i>
   <i type="int" name="EXXOEP">     0</i>
   <i type="int" name="FOURORBIT">     0</i>
   <i name="AEXX">      0.00000000</i>
   <i name="HFALPHA">      0.00000000</i>
   <i name="MCALPHA">      0.00000000</i>
   <i name="ALDAX">      1.00000000</i>
   <i name="AGGAX">      1.00000000</i>
   <i name="ALDAC">      1.00000000</i>
   <i name="AGGAC">      1.00000000</i>
   <i type="int" name="NKREDX">     1</i>
   <i type="int" name="NKREDY">     1</i>
   <i type="int" name="NKREDZ">     1</i>
   <i type="logical" name="SHIFTRED"> F  </i>
   <i type="logical" name="ODDONLY"> F  </i>
   <i type="logical" name="EVENONLY"> F  </i>
   <i type="int" name="LMAXFOCK">     0</i>
   <i type="int" name="NMAXFOCKAE">     0</i>
   <i type="logical" name="LFOCKAEDFT"> F  </i>
   <i name="HFSCREEN">      0.00000000</i>
   <i name="HFSCREENC">      0.00000000</i>
   <i type="int" name="NBANDSGWLOW">     0</i>
  </separator>
  <separator name="vdW DFT" >
   <i type="logical" name="LUSE_VDW"> F  </i>
   <i name="Zab_VDW">     -0.84910000</i>
   <i name="PARAM1">      0.12340000</i>
   <i name="PARAM2">      1.00000000</i>
   <i name="PARAM3">      0.00000000</i>
  </separator>
  <separator name="model GW" >
   <i type="int" name="MODEL_GW">     0</i>
   <i name="MODEL_EPS0">      7.59765020</i>
   <i name="MODEL_ALPHA">      1.00000000</i>
  </separator>
  <separator name="linear response parameters" >
   <i type="logical" name="LEPSILON"> F  </i>
   <i type="logical" name="LRPA"> F  </i>
   <i type="logical" name="LNABLA"> F  </i>
   <i type="logical" name="LVEL"> F  </i>
   <i type="int" name="KINTER">     0</i>
   <i name="CSHIFT">      0.10000000</i>
   <i name="OMEGAMAX">     -1.00000000</i>
   <i name="DEG_THRESHOLD">      0.00200000</i>
  </separator>
  <separator name="orbital magnetization" >
   <i type="logical" name="NUCIND"> F  </i>
   <v name="MAGPOS">      0.00000000      0.00000000      0.00000000</v>
   <i type="logical" name="LNICSALL"> T  </i>
   <i type="logical" name="ORBITALMAG"> F  </i>
   <i type="logical" name="LMAGBLOCH"> F  </i>
   <i type="logical" name="LCHIMAG"> F  </i>
   <i type="logical" name="LGAUGE"> T  </i>
   <i type="int" name="MAGATOM">     0</i>
   <v name="MAGDIPOL">      0.00000000      0.00000000      0.00000000</v>
   <v name="AVECCONST">      0.00000000      0.00000000      0.00000000</v>
  </separator>
  <separator name="response functions" >
   <i type="logical" name="LADDER"> F  </i>
   <i type="logical" name="LFXC"> F  </i>
   <i type="logical" name="LHARTREE"> T  </i>
   <i type="int" name="IBSE">     0</i>
   <i type="logical" name="LTCTE"> F  </i>
   <i type="logical" name="LTETE"> F  </i>
   <i type="logical" name="LTRIPLET"> F  </i>
   <i type="logical" name="LFXCEPS"> F  </i>
   <i type="logical" name="LFXHEG"> F  </i>
   <i type="logical" name="L2ORDER"> F  </i>
   <i type="logical" name="LUSEW"> F  </i>
   <i name="ENCUTGW">     -2.00000000</i>
   <i name="ENCUTGWSOFT">     -2.00000000</i>
   <i name="ENCUTLF">     -1.00000000</i>
   <i type="int" name="LMAXMP2">    -1</i>
   <i name="SCISSOR">      0.00000000</i>
   <i type="int" name="NOMEGA">     0</i>
   <i type="int" name="NOMEGAR">     0</i>
   <i type="int" name="NBANDSGW">    -1</i>
   <i type="int" name="NBANDSO">    -1</i>
   <i type="int" name="NBANDSV">    -1</i>
   <i type="int" name="NELM">   300</i>
   <i type="int" name="DIM">     3</i>
   <i type="int" name="ANTIRES">     0</i>
   <i name="OMEGAMAX">    -30.00000000</i>
   <i name="OMEGAMIN">    -30.00000000</i>
   <i name="OMEGATL">   -200.00000000</i>
   <i type="int" name="OMEGAGRID">     0</i>
   <i name="CSHIFT">     -0.10000000</i>
   <i type="logical" name="SELFENERGY"> F  </i>
   <i type="logical" name="LSPECTRAL"> F  </i>
   <i type="logical" name="ODDONLYGW"> F  </i>
   <i type="logical" name="EVENONLYGW"> F  </i>
   <i type="int" name="NKREDLFX">     1</i>
   <i type="int" name="NKREDLFY">     1</i>
   <i type="int" name="NKREDLFZ">     1</i>
   <i type="int" name="MAXMEM">  1800</i>
   <i type="int" name="TELESCOPE">     0</i>
   <i type="int" name="TAUPAR">     1</i>
  </separator>
  <separator name="External order field" >
   <i name="OFIELD_KAPPA">      0.00000000</i>
   <v name="OFIELD_K">      0.00000000      0.00000000      0.00000000</v>
   <i name="OFIELD_Q6_NEAR">      0.00000000</i>
   <i name="OFIELD_Q6_FAR">      0.00000000</i>
   <i name="OFIELD_A">      0.00000000</i>
  </separator>
 </parameters>
 <atominfo>
  <atoms>      36 </atoms>
  <types>       3 </types>
  <array name="atoms" >
   <dimension dim="1">ion</dimension>
   <field type="string">element</field>
   <field type="int">atomtype</field>
   <set>
    <rc><c>Fe</c><c>   1</c></rc>
    <rc><c>Fe</c><c>   1</c></rc>
    <rc><c>Fe</c><c>   1</c></rc>
    <rc><c>Fe</c><c>   1</c></rc>
    <rc><c>Fe</c><c>   1</c></rc>
    <rc><c>Fe</c><c>   1</c></rc>
    <rc><c>Fe</c><c>   1</c></rc>
    <rc><c>Fe</c><c>   1</c></rc>
    <rc><c>Fe</c><c>   1</c></rc>
    <rc><c>Fe</c><c>   1</c></rc>
    <rc><c>Fe</c><c>   1</c></rc>
    <rc><c>Fe</c><c>   1</c></rc>
    <rc><c>O </c><c>   2</c></rc>
    <rc><c>O </c><c>   2</c></rc>
    <rc><c>F </c><c>   3</c></rc>
    <rc><c>F </c><c>   3</c></rc>
    <rc><c>F </c><c>   3</c></rc>
    <rc><c>F </c><c>   3</c></rc>
    <rc><c>F </c><c>   3</c></rc>
    <rc><c>F </c><c>   3</c></rc>
    <rc><c>F </c><c>   3</c></rc>
    <rc><c>F </c><c>   3</c></rc>
    <rc><c>F </c><c>   3</c></rc>
    <rc><c>F </c><c>   3</c></rc>
    <rc><c>F </c><c>   3</c></rc>
    <rc><c>F </c><c>   3</c></rc>
    <rc><c>F </c><c>   3</c></rc>
    <rc><c>F </c><c>   3</c></rc>
    <rc><c>F </c><c>   3</c></rc>
    <rc><c>F </c><c>   3</c></rc>
    <rc><c>F </c><c>   3</c></rc>
    <rc><c>F </c><c>   3</c></rc>
    <rc><c>F </c><c>   3</c></rc>
    <rc><c>F </c><c>   3</c></rc>
    <rc><c>F </c><c>   3</c></rc>
    <rc><c>F </c><c>   3</c></rc>
   </set>
  </array>
  <array name="atomtypes" >
   <dimension dim="1">type</dimension>
   <field type="int">atomspertype</field>
   <field type="string">element</field>
   <field>mass</field>
   <field>valence</field>
   <field type="string">pseudopotential</field>
   <set>
    <rc><c>  12</c><c>Fe</c><c>     55.84700000</c><c>      8.00000000</c><c>  PAW_PBE Fe 06Sep2000                  </c></rc>
    <rc><c>   2</c><c>O </c><c>     16.00000000</c><c>      6.00000000</c><c>  PAW_PBE O 08Apr2002                   </c></rc>
    <rc><c>  22</c><c>F </c><c>     18.99800000</c><c>      7.00000000</c><c>  PAW_PBE F 08Apr2002                   </c></rc>
   </set>
  </array>
 </atominfo>
 <structure name="initialpos" >
  <crystal>
   <varray name="basis" >
    <v>       3.26603300       0.00000000       0.00000000 </v>
    <v>       0.00000000      20.54938400       0.00000000 </v>
    <v>       0.00000000       0.00000000       6.79221100 </v>
   </varray>
   <i name="volume">    455.85901219 </i>
   <varray name="rec_basis" >
    <v>       0.30618184       0.00000000       0.00000000 </v>
    <v>       0.00000000       0.04866326       0.00000000 </v>
    <v>       0.00000000       0.00000000       0.14722746 </v>
   </varray>
  </crystal>
  <varray name="positions" >
   <v>       0.00000000       0.16671900       0.50139100 </v>
   <v>       0.00000000       0.83638000       0.50139100 </v>
   <v>       0.00000000       0.66671900       0.00139100 </v>
   <v>       0.00000000       0.33328100       0.00139100 </v>
   <v>       0.50000000       0.16602100       0.00000400 </v>
   <v>       0.50000000       0.83397900       0.00000400 </v>
   <v>       0.50000000       0.66602100       0.50000400 </v>
   <v>       0.50000000       0.33397900       0.50000400 </v>
   <v>       0.00000000       0.00000000       0.01216200 </v>
   <v>       0.00000000       0.50000000       0.51216200 </v>
   <v>       0.50000000       0.00000000       0.47240000 </v>
   <v>       0.50000000       0.50000000       0.97240000 </v>
   <v>       0.00000000       0.00000000       0.31436200 </v>
   <v>       0.00000000       0.50000000       0.81377800 </v>
   <v>       0.00000000       0.16816900       0.20771700 </v>
   <v>       0.00000000       0.83183100       0.20329900 </v>
   <v>       0.00000000       0.66816900       0.70329900 </v>
   <v>       0.00000000       0.33183100       0.70329900 </v>
   <v>       0.00000000       0.16838200       0.79272800 </v>
   <v>       0.00000000       0.83161800       0.79934600 </v>
   <v>       0.00000000       0.66838200       0.29934600 </v>
   <v>       0.99382600       0.33161800       0.30469700 </v>
   <v>       0.50000000       0.06837200       0.99633700 </v>
   <v>       0.50000000       0.93162800       0.99633700 </v>
   <v>       0.50000000       0.56837200       0.49633700 </v>
   <v>       0.50000000       0.43162800       0.49633700 </v>
   <v>       0.50000000       0.09818400       0.50567900 </v>
   <v>       0.50000000       0.90420700       0.50567900 </v>
   <v>       0.50000000       0.59818400       0.00567900 </v>
   <v>       0.50000000       0.40181600       0.00567900 </v>
   <v>       0.50000000       0.23406000       0.50152500 </v>
   <v>       0.50000000       0.76594000       0.50152500 </v>
   <v>       0.50000000       0.73406000       0.00152500 </v>
   <v>       0.50000000       0.26594000       0.00152500 </v>
   <v>       0.00066100       0.00000000       0.69176400 </v>
   <v>       0.99779800       0.50000000       0.19474100 </v>
  </varray>
 </structure>
 <calculation>
  <scstep>
   <time name="diag">    0.31    0.32</time>
   <time name="diis">    0.45    0.49</time>
   <time name="orth">    0.03    0.06</time>
   <time name="total">    1.09    1.25</time>
   <energy>
    <i name="alphaZ">    939.70374256 </i>
    <i name="ewald"> -15972.88065946 </i>
    <i name="hartreedc">  -6702.65859368 </i>
    <i name="XCdc">    901.97509347 </i>
    <i name="pawpsdc">  19213.82102697 </i>
    <i name="pawaedc"> -19422.08171028 </i>
    <i name="eentropy">      0.09303195 </i>
    <i name="bandstr">   1829.93602943 </i>
    <i name="atom">  22504.09828397 </i>
    <i name="e_fr_energy">   3292.00624491 </i>
    <i name="e_wo_entrp">   3291.91321296 </i>
    <i name="e_0_energy">   3291.97523426 </i>
   </energy>
  </scstep>
  <scstep>
   <time name="diag">    0.16    0.19</time>
   <time name="diis">    0.47    0.60</time>
   <time name="orth">    0.05    0.10</time>
   <time name="total">    0.68    0.89</time>
   <energy>
    <i name="e_fr_energy">   1032.80665445 </i>
    <i name="e_wo_entrp">   1032.78781436 </i>
    <i name="e_0_energy">   1032.80037442 </i>
   </energy>
  </scstep>
  <scstep>
   <time name="diag">    0.35    0.46</time>
   <time name="diis">    0.37    0.60</time>
   <time name="orth">    0.20    0.27</time>
   <time name="total">    0.92    1.34</time>
   <energy>
    <i name="e_fr_energy">    344.26701315 </i>
    <i name="e_wo_entrp">    344.21854103 </i>
    <i name="e_0_energy">    344.25085577 </i>
   </energy>
  </scstep>
  <scstep>
   <time name="diag">    0.36    0.55</time>
   <time name="diis">    0.42    0.55</time>
   <time name="orth">    0.07    0.14</time>
   <time name="total">    0.85    1.25</time>
   <energy>
    <i name="e_fr_energy">     64.92940343 </i>
    <i name="e_wo_entrp">     64.86291789 </i>
    <i name="e_0_energy">     64.90724159 </i>
   </energy>
  </scstep>
  <scstep>
   <time name="diag">    0.20    0.29</time>
   <time name="diis">    0.33    0.50</time>
   <time name="orth">    0.04    0.06</time>
   <time name="total">    0.57    0.86</time>
   <energy>
    <i name="e_fr_energy">    -89.35067184 </i>
    <i name="e_wo_entrp">    -89.48719006 </i>
    <i name="e_0_energy">    -89.39617791 </i>
   </energy>
  </scstep>
  <scstep>
   <time name="diag">    0.19    0.26</time>
   <time name="diis">    0.35    0.52</time>
   <time name="orth">    0.17    0.21</time>
   <time name="total">    0.71    0.99</time>
   <energy>
    <i name="e_fr_energy">   -160.01377384 </i>
    <i name="e_wo_entrp">   -160.09905377 </i>
    <i name="e_0_energy">   -160.04220048 </i>
   </energy>
  </scstep>
  <scstep>
   <time name="diag">    0.29    0.47</time>
   <time name="diis">    0.51    0.64</time>
   <time name="orth">    0.27    0.32</time>
   <time name="total">    1.08    1.42</time>
   <energy>
    <i name="e_fr_energy">   -194.89384927 </i>
    <i name="e_wo_entrp">   -195.05648399 </i>
    <i name="e_0_energy">   -194.94806084 </i>
   </energy>
  </scstep>
  <scstep>
   <time name="diag">    0.34    0.50</time>
   <time name="diis">    0.34    0.51</time>
   <time name="orth">    0.08    0.10</time>
   <time name="total">    0.76    1.11</time>
   <energy>
    <i name="e_fr_energy">   -208.51006828 </i>
    <i name="e_wo_entrp">   -208.71700735 </i>
    <i name="e_0_energy">   -208.57904797 </i>
   </energy>
  </scstep>
  <scstep>
   <time name="diag">    0.22    0.26</time>
   <time name="diis">    1.07    1.88</time>
   <time name="orth">    0.40    0.48</time>
   <time name="total">    1.69    2.62</time>
   <energy>
    <i name="e_fr_energy">   -221.95114757 </i>
    <i name="e_wo_entrp">   -222.17737076 </i>
    <i name="e_0_energy">   -222.02655530 </i>
   </energy>
  </scstep>
  <scstep>
   <time name="diag">    0.34    0.44</time>
   <time name="diis">    1.22    1.73</time>
   <time name="orth">    0.27    0.36</time>
   <time name="total">    1.83    2.53</time>
   <energy>
    <i name="e_fr_energy">   -222.22434234 </i>
    <i name="e_wo_entrp">   -222.42737490 </i>
    <i name="e_0_energy">   -222.29201986 </i>
   </energy>
  </scstep>
  <scstep>
   <time name="diag">    0.23    0.41</time>
   <time name="diis">    1.14    1.67</time>
   <time name="orth">    0.02    0.05</time>
   <time name="total">    1.40    2.12</time>
   <energy>
    <i name="e_fr_energy">   -222.52281345 </i>
    <i name="e_wo_entrp">   -222.64518263 </i>
    <i name="e_0_energy">   -222.56360318 </i>
   </energy>
  </scstep>
  <scstep>
   <time name="diag">    0.21    0.32</time>
   <time name="diis">    0.99    1.38</time>
   <time name="orth">    0.08    0.08</time>
   <time name="total">    1.41    1.96</time>
   <energy>
    <i name="e_fr_energy">   -222.72519186 </i>
    <i name="e_wo_entrp">   -222.82236506 </i>
    <i name="e_0_energy">   -222.75758293 </i>
   </energy>
  </scstep>
  <scstep>
   <time name="diag">    0.39    0.69</time>
   <time name="diis">    0.80    1.21</time>
   <time name="orth">    0.27    0.39</time>
   <time name="total">    1.73    2.66</time>
   <energy>
    <i name="e_fr_energy">   -209.24144158 </i>
    <i name="e_wo_entrp">   -209.22134461 </i>
    <i name="e_0_energy">   -209.23474259 </i>
   </energy>
  </scstep>
  <scstep>
   <time name="diag">    0.24    0.34</time>
   <time name="diis">    0.81    1.09</time>
   <time name="orth">    0.05    0.11</time>
   <time name="total">    1.66    2.32</time>
   <energy>
    <i name="e_fr_energy">   -254.74176567 </i>
    <i name="e_wo_entrp">   -254.73660397 </i>
    <i name="e_0_energy">   -254.74004510 </i>
   </energy>
  </scstep>
  <scstep>
   <time name="diag">    0.16    0.19</time>
   <time name="diis">    0.78    1.35</time>
   <time name="orth">    0.18    0.18</time>
   <time name="total">    1.33    1.93</time>
   <energy>
    <i name="e_fr_energy">   -269.57855058 </i>
    <i name="e_wo_entrp">   -269.63875352 </i>
    <i name="e_0_energy">   -269.59861823 </i>
   </energy>
  </scstep>
  <scstep>
   <time name="diag">    0.21    0.32</time>
   <time name="diis">    0.88    1.27</time>
   <time name="orth">    0.04    0.04</time>
   <time name="total">    1.46    2.00</time>
   <energy>
    <i name="e_fr_energy">   -226.79369564 </i>
    <i name="e_wo_entrp">   -226.69803795 </i>
    <i name="e_0_energy">   -226.76180974 </i>
   </energy>
  </scstep>
  <scstep>
   <time name="diag">    0.16    0.23</time>
   <time name="diis">    0.86    1.29</time>
   <time name="orth">    0.02    0.04</time>
   <time name="total">    1.50    2.30</time>
   <energy>
    <i name="e_fr_energy">   -213.66304399 </i>
    <i name="e_wo_entrp">   -213.74724605 </i>
    <i name="e_0_energy">   -213.69111134 </i>
   </energy>
  </scstep>
  <scstep>
   <time name="diag">    0.23    0.36</time>
   <time name="diis">    0.85    1.17</time>
   <time name="orth">    0.25    0.37</time>
   <time name="total">    1.71    2.46</time>
   <energy>
    <i name="e_fr_energy">   -256.19713834 </i>
    <i name="e_wo_entrp">   -256.09640533 </i>
    <i name="e_0_energy">   -256.16356067 </i>
   </energy>
  </scstep>
  <scstep>
   <time name="diag">    0.32    0.41</time>
   <time name="diis">    0.85    1.09</time>
   <time name="orth">    0.03    0.04</time>
   <time name="total">    1.37    1.80</time>
   <energy>
    <i name="e_fr_energy">   -222.74897285 </i>
    <i name="e_wo_entrp">   -222.69825838 </i>
    <i name="e_0_energy">   -222.73206803 </i>
   </energy>
  </scstep>
  <scstep>
   <time name="diag">    0.27    0.31</time>
   <time name="diis">    0.91    1.18</time>
   <time name="orth">    0.41    0.46</time>
   <time name="total">    1.83    2.28</time>
   <energy>
    <i name="e_fr_energy">   -219.35798706 </i>
    <i name="e_wo_entrp">   -219.21397487 </i>
    <i name="e_0_energy">   -219.30998300 </i>
   </energy>
  </scstep>
  <scstep>
   <time name="diag">    0.50    0.55</time>
   <time name="diis">    0.77    1.18</time>
   <time name="orth">    0.05    0.09</time>
   <time name="total">    1.57    2.10</time>
   <energy>
    <i name="e_fr_energy">   -217.72510848 </i>
    <i name="e_wo_entrp">   -217.39825665 </i>
    <i name="e_0_energy">   -217.61615787 </i>
   </energy>
  </scstep>
  <scstep>
   <time name="diag">    0.23    0.34</time>
   <time name="diis">    0.86    1.18</time>
   <time name="orth">    0.04    0.06</time>
   <time name="total">    1.70    2.50</time>
   <energy>
    <i name="e_fr_energy">   -210.45693195 </i>
    <i name="e_wo_entrp">   -210.46347128 </i>
    <i name="e_0_energy">   -210.45911173 </i>
   </energy>
  </scstep>
  <scstep>
   <time name="diag">    0.21    0.30</time>
   <time name="diis">    0.94    1.31</time>
   <time name="orth">    0.15    0.18</time>
   <time name="total">    1.71    2.27</time>
   <energy>
    <i name="e_fr_energy">   -210.64627882 </i>
    <i name="e_wo_entrp">   -210.65617238 </i>
    <i name="e_0_energy">   -210.64957668 </i>
   </energy>
  </scstep>
  <scstep>
   <time name="diag">    0.20    0.24</time>
   <time name="diis">    0.90    1.07</time>
   <time name="orth">    0.08    0.10</time>
   <time name="total">    1.41    1.68</time>
   <energy>
    <i name="e_fr_energy">   -205.28374680 </i>
    <i name="e_wo_entrp">   -205.25130126 </i>
    <i name="e_0_energy">   -205.27293162 </i>
   </energy>
  </scstep>
  <scstep>
   <time name="diag">    0.20    0.23</time>
   <time name="diis">    0.75    1.12</time>
   <time name="orth">    0.03    0.04</time>
   <time name="total">    1.31    1.90</time>
   <energy>
    <i name="e_fr_energy">   -198.20087187 </i>
    <i name="e_wo_entrp">   -198.22830274 </i>
    <i name="e_0_energy">   -198.21001549 </i>
   </energy>
  </scstep>
  <scstep>
   <time name="diag">    0.21    0.26</time>
   <time name="diis">    0.95    1.17</time>
   <time name="orth">    0.11    0.18</time>
   <time name="total">    1.50    1.87</time>
   <energy>
    <i name="e_fr_energy">   -194.75508662 </i>
    <i name="e_wo_entrp">   -194.65588713 </i>
    <i name="e_0_energy">   -194.72202012 </i>
   </energy>
  </scstep>
  <scstep>
   <time name="diag">    0.49    0.63</time>
   <time name="diis">    0.75    1.13</time>
   <time name="orth">    0.24    0.39</time>
   <time name="total">    1.74    2.50</time>
   <energy>
    <i name="e_fr_energy">   -191.85519558 </i>
    <i name="e_wo_entrp">   -191.87884035 </i>
    <i name="e_0_energy">   -191.86307717 </i>
   </energy>
  </scstep>
  <scstep>
   <time name="diag">    0.26    0.44</time>
   <time name="diis">    0.96    1.21</time>
   <time name="orth">    0.11    0.22</time>
   <time name="total">    1.56    2.18</time>
   <energy>
    <i name="e_fr_energy">   -190.33355142 </i>
    <i name="e_wo_entrp">   -190.43367036 </i>
    <i name="e_0_energy">   -190.36692440 </i>
   </energy>
  </scstep>
  <scstep>
   <time name="diag">    0.39    0.63</time>
   <time name="diis">    0.81    1.15</time>
   <time name="orth">    0.03    0.06</time>
   <time name="total">    1.40    2.07</time>
   <energy>
    <i name="e_fr_energy">   -190.30391607 </i>
    <i name="e_wo_entrp">   -190.35294028 </i>
    <i name="e_0_energy">   -190.32025747 </i>
   </energy>
  </scstep>
  <scstep>
   <time name="diag">    0.19    0.35</time>
   <time name="diis">    0.78    1.21</time>
   <time name="orth">    0.06    0.10</time>
   <time name="total">    1.21    1.94</time>
   <energy>
    <i name="e_fr_energy">   -189.93510324 </i>
    <i name="e_wo_entrp">   -189.91559064 </i>
    <i name="e_0_energy">   -189.92859904 </i>
   </energy>
  </scstep>
  <scstep>
   <time name="diag">    0.28    0.35</time>
   <time name="diis">    0.76    1.09</time>
   <time name="orth">    0.03    0.06</time>
   <time name="total">    1.31    1.89</time>
   <energy>
    <i name="e_fr_energy">   -189.81456566 </i>
    <i name="e_wo_entrp">   -189.93292129 </i>
    <i name="e_0_energy">   -189.85401754 </i>
   </energy>
  </scstep>
  <scstep>
   <time name="diag">    0.16    0.18</time>
   <time name="diis">    0.79    1.09</time>
   <time name="orth">    0.27    0.33</time>
   <time name="total">    1.67    2.52</time>
   <energy>
    <i name="e_fr_energy">   -189.63022349 </i>
    <i name="e_wo_entrp">   -189.66304178 </i>
    <i name="e_0_energy">   -189.64116292 </i>
   </energy>
  </scstep>
  <scstep>
   <time name="diag">    0.29    0.35</time>
   <time name="diis">    0.84    1.31</time>
   <time name="orth">    0.09    0.12</time>
   <time name="total">    1.58    2.27</time>
   <energy>
    <i name="e_fr_energy">   -189.40291373 </i>
    <i name="e_wo_entrp">   -189.49609290 </i>
    <i name="e_0_energy">   -189.43397345 </i>
   </energy>
  </scstep>
  <scstep>
   <time name="diag">    0.20    0.28</time>
   <time name="diis">    0.95    1.31</time>
   <time name="orth">    0.19    0.24</time>
   <time name="total">    1.50    2.13</time>
   <energy>
    <i name="e_fr_energy">   -189.26480652 </i>
    <i name="e_wo_entrp">   -189.34152156 </i>
    <i name="e_0_energy">   -189.29037820 </i>
   </energy>
  </scstep>
  <scstep>
   <time name="diag">    0.24    0.36</time>
   <time name="diis">    0.84    1.28</time>
   <time name="orth">    0.08    0.16</time>
   <time name="total">    1.40    2.21</time>
   <energy>
    <i name="e_fr_energy">   -189.17578369 </i>
    <i name="e_wo_entrp">   -189.24562831 </i>
    <i name="e_0_energy">   -189.19906523 </i>
   </energy>
  </scstep>
  <scstep>
   <time name="diag">    0.16    0.24</time>
   <time name="diis">    0.89    1.38</time>
   <time name="orth">    0.02    0.04</time>
   <time name="total">    1.30    2.03</time>
   <energy>
    <i name="e_fr_energy">   -189.27719734 </i>
    <i name="e_wo_entrp">   -189.31821860 </i>
    <i name="e_0_energy">   -189.29087109 </i>
   </energy>
  </scstep>
  <scstep>
   <time name="diag">    0.45    0.59</time>
   <time name="diis">    0.76    1.17</time>
   <time name="orth">    0.15    0.21</time>
   <time name="total">    1.64    2.38</time>
   <energy>
    <i name="e_fr_energy">   -189.17839300 </i>
    <i name="e_wo_entrp">   -189.22659125 </i>
    <i name="e_0_energy">   -189.19445908 </i>
   </energy>
  </scstep>
  <scstep>
   <time name="diag">    0.21    0.36</time>
   <time name="diis">    0.87    1.26</time>
   <time name="orth">    0.08    0.10</time>
   <time name="total">    1.42    2.12</time>
   <energy>
    <i name="e_fr_energy">   -189.18535143 </i>
    <i name="e_wo_entrp">   -189.25867704 </i>
    <i name="e_0_energy">   -189.20979330 </i>
   </energy>
  </scstep>
  <scstep>
   <time name="diag">    0.33    0.46</time>
   <time name="diis">    1.04    1.35</time>
   <time name="orth">    0.25    0.36</time>
   <time name="total">    1.83    2.50</time>
   <energy>
    <i name="e_fr_energy">   -189.21381076 </i>
    <i name="e_wo_entrp">   -189.22574165 </i>
    <i name="e_0_energy">   -189.21778772 </i>
   </energy>
  </scstep>
  <scstep>
   <time name="diag">    0.27    0.33</time>
   <time name="diis">    0.96    1.19</time>
   <time name="orth">    0.07    0.08</time>
   <time name="total">    1.63    2.05</time>
   <energy>
    <i name="e_fr_energy">   -189.14398047 </i>
    <i name="e_wo_entrp">   -189.17299306 </i>
    <i name="e_0_energy">   -189.15365133 </i>
   </energy>
  </scstep>
  <scstep>
   <time name="diag">    0.21    0.28</time>
   <time name="diis">    0.94    1.18</time>
   <time name="orth">    0.06    0.07</time>
   <time name="total">    1.48    1.85</time>
   <energy>
    <i name="e_fr_energy">   -189.14454503 </i>
    <i name="e_wo_entrp">   -189.16464076 </i>
    <i name="e_0_energy">   -189.15124361 </i>
   </energy>
  </scstep>
  <scstep>
   <time name="diag">    0.27    0.29</time>
   <time name="diis">    0.93    1.15</time>
   <time name="orth">    0.03    0.05</time>
   <time name="total">    1.51    1.90</time>
   <energy>
    <i name="e_fr_energy">   -189.14531189 </i>
    <i name="e_wo_entrp">   -189.15763379 </i>
    <i name="e_0_energy">   -189.14941919 </i>
   </energy>
  </scstep>
  <scstep>
   <time name="diag">    0.17    0.20</time>
   <time name="diis">    0.85    1.09</time>
   <time name="orth">    0.04    0.08</time>
   <time name="total">    1.35    1.81</time>
   <energy>
    <i name="e_fr_energy">   -189.12877064 </i>
    <i name="e_wo_entrp">   -189.14907489 </i>
    <i name="e_0_energy">   -189.13553873 </i>
   </energy>
  </scstep>
  <scstep>
   <time name="diag">    0.26    0.35</time>
   <time name="diis">    0.77    0.82</time>
   <time name="orth">    0.39    0.48</time>
   <time name="total">    1.66    1.98</time>
   <energy>
    <i name="e_fr_energy">   -189.12285977 </i>
    <i name="e_wo_entrp">   -189.13882598 </i>
    <i name="e_0_energy">   -189.12818184 </i>
   </energy>
  </scstep>
  <scstep>
   <time name="diag">    0.27    0.38</time>
   <time name="diis">    0.64    0.84</time>
   <time name="orth">    0.04    0.06</time>
   <time name="total">    1.14    1.52</time>
   <energy>
    <i name="e_fr_energy">   -189.12231488 </i>
    <i name="e_wo_entrp">   -189.14299692 </i>
    <i name="e_0_energy">   -189.12920889 </i>
   </energy>
  </scstep>
  <scstep>
   <time name="diag">    0.16    0.21</time>
   <time name="diis">    0.56    0.72</time>
   <time name="orth">    0.08    0.08</time>
   <time name="total">    1.12    1.42</time>
   <energy>
    <i name="e_fr_energy">   -189.12063650 </i>
    <i name="e_wo_entrp">   -189.13971692 </i>
    <i name="e_0_energy">   -189.12699664 </i>
   </energy>
  </scstep>
  <scstep>
   <time name="diag">    0.20    0.30</time>
   <time name="diis">    0.47    0.80</time>
   <time name="orth">    0.06    0.06</time>
   <time name="total">    1.10    1.71</time>
   <energy>
    <i name="e_fr_energy">   -189.11398549 </i>
    <i name="e_wo_entrp">   -189.13951306 </i>
    <i name="e_0_energy">   -189.12249468 </i>
   </energy>
  </scstep>
  <scstep>
   <time name="diag">    0.10    0.21</time>
   <time name="diis">    0.49    0.64</time>
   <time name="orth">    0.08    0.09</time>
   <time name="total">    0.82    1.22</time>
   <energy>
    <i name="e_fr_energy">   -189.11376292 </i>
    <i name="e_wo_entrp">   -189.13949511 </i>
    <i name="e_0_energy">   -189.12234032 </i>
   </energy>
  </scstep>
  <scstep>
   <time name="diag">    0.24    0.26</time>
   <time name="diis">    0.38    0.50</time>
   <time name="orth">    0.10    0.13</time>
   <time name="total">    1.00    1.25</time>
   <energy>
    <i name="e_fr_energy">   -189.11339817 </i>
    <i name="e_wo_entrp">   -189.13991643 </i>
    <i name="e_0_energy">   -189.12223759 </i>
   </energy>
  </scstep>
  <scstep>
   <time name="diag">    0.33    0.41</time>
   <time name="diis">    0.79    0.80</time>
   <time name="orth">    0.05    0.05</time>
   <time name="total">    1.38    1.53</time>
   <energy>
    <i name="e_fr_energy">   -189.11225472 </i>
    <i name="e_wo_entrp">   -189.14151798 </i>
    <i name="e_0_energy">   -189.12200914 </i>
   </energy>
  </scstep>
  <scstep>
   <time name="diag">    0.18    0.18</time>
   <time name="diis">    0.71    0.71</time>
   <time name="orth">    0.05    0.05</time>
   <time name="total">    1.10    1.10</time>
   <energy>
    <i name="alphaZ">    939.70374256 </i>
    <i name="ewald"> -15972.88065946 </i>
    <i name="hartreedc">  -6861.16777815 </i>
    <i name="XCdc">    918.24604134 </i>
    <i name="pawpsdc">  22390.03371651 </i>
    <i name="pawaedc"> -22600.31544247 </i>
    <i name="eentropy">      0.02904874 </i>
    <i name="bandstr">  -1506.85928207 </i>
    <i name="atom">  22504.09828397 </i>
    <i name="e_fr_energy">   -189.11232906 </i>
    <i name="e_wo_entrp">   -189.14137780 </i>
    <i name="e_0_energy">   -189.12201197 </i>
   </energy>
  </scstep>
  <structure>
   <crystal>
    <varray name="basis" >
     <v>       3.26603300       0.00000000       0.00000000 </v>
     <v>       0.00000000      20.54938400       0.00000000 </v>
     <v>       0.00000000       0.00000000       6.79221100 </v>
    </varray>
    <i name="volume">    455.85901219 </i>
    <varray name="rec_basis" >
     <v>       0.30618184       0.00000000       0.00000000 </v>
     <v>       0.00000000       0.04866326       0.00000000 </v>
     <v>       0.00000000       0.00000000       0.14722746 </v>
    </varray>
   </crystal>
   <varray name="positions" >
    <v>       0.00000000       0.16671900       0.50139100 </v>
    <v>       0.00000000       0.83638000       0.50139100 </v>
    <v>       0.00000000       0.66671900       0.00139100 </v>
    <v>       0.00000000       0.33328100       0.00139100 </v>
    <v>       0.50000000       0.16602100       0.00000400 </v>
    <v>       0.50000000       0.83397900       0.00000400 </v>
    <v>       0.50000000       0.66602100       0.50000400 </v>
    <v>       0.50000000       0.33397900       0.50000400 </v>
    <v>       0.00000000       0.00000000       0.01216200 </v>
    <v>       0.00000000       0.50000000       0.51216200 </v>
    <v>       0.50000000       0.00000000       0.47240000 </v>
    <v>       0.50000000       0.50000000       0.97240000 </v>
    <v>       0.00000000       0.00000000       0.31436200 </v>
    <v>       0.00000000       0.50000000       0.81377800 </v>
    <v>       0.00000000       0.16816900       0.20771700 </v>
    <v>       0.00000000       0.83183100       0.20329900 </v>
    <v>       0.00000000       0.66816900       0.70329900 </v>
    <v>       0.00000000       0.33183100       0.70329900 </v>
    <v>       0.00000000       0.16838200       0.79272800 </v>
    <v>       0.00000000       0.83161800       0.79934600 </v>
    <v>       0.00000000       0.66838200       0.29934600 </v>
    <v>       0.99382600       0.33161800       0.30469700 </v>
    <v>       0.50000000       0.06837200       0.99633700 </v>
    <v>       0.50000000       0.93162800       0.99633700 </v>
    <v>       0.50000000       0.56837200       0.49633700 </v>
    <v>       0.50000000       0.43162800       0.49633700 </v>
    <v>       0.50000000       0.09818400       0.50567900 </v>
    <v>       0.50000000       0.90420700       0.50567900 </v>
    <v>       0.50000000       0.59818400       0.00567900 </v>
    <v>       0.50000000       0.40181600       0.00567900 </v>
    <v>       0.50000000       0.23406000       0.50152500 </v>
    <v>       0.50000000       0.76594000       0.50152500 </v>
    <v>       0.50000000       0.73406000       0.00152500 </v>
    <v>       0.50000000       0.26594000       0.00152500 </v>
    <v>       0.00066100       0.00000000       0.69176400 </v>
    <v>       0.99779800       0.50000000       0.19474100 </v>
   </varray>
  </structure>
  <varray name="forces" >
   <v>       0.00013254      -0.07708733       0.01611476 </v>
   <v>      -0.00016342      -0.45433167       0.06219887 </v>
   <v>       0.00006630      -0.07792757       0.06956840 </v>
   <v>      -0.07729739       0.09929523       0.11431416 </v>
   <v>      -0.00013356       0.26374888       0.00482360 </v>
   <v>      -0.00018581      -0.35377529       0.07290216 </v>
   <v>      -0.00004240       0.35302746       0.07093025 </v>
   <v>      -0.08274343      -0.29495487       0.24624388 </v>
   <v>       0.00761327       0.00591143       1.03165685 </v>
   <v>      -0.02645463       0.00409676       1.01431085 </v>
   <v>       0.00531268       0.13319703       0.10419923 </v>
   <v>      -0.02016357       0.00761034       0.06619697 </v>
   <v>      -0.00734223       0.01992040      -1.20117694 </v>
   <v>       0.02444228       0.00204178      -1.09254381 </v>
   <v>       0.00017882      -0.18365819      -0.35675801 </v>
   <v>      -0.00007379       0.33698673      -0.19400837 </v>
   <v>      -0.00005358      -0.20757350      -0.19749804 </v>
   <v>       0.05242649       0.19312933      -0.22085308 </v>
   <v>      -0.00012042      -0.17977908       0.41853421 </v>
   <v>      -0.00013512       0.33342516       0.13207885 </v>
   <v>       0.00000305      -0.20420876       0.13455977 </v>
   <v>       0.12512433       0.18552602      -0.09118404 </v>
   <v>       0.00028407      -0.47636384       0.19886901 </v>
   <v>       0.00026020       0.49071621       0.19768410 </v>
   <v>      -0.00141251      -0.50062351       0.20473346 </v>
   <v>      -0.00503506       0.51090714       0.20330155 </v>
   <v>       0.00076655       0.83032546      -0.19963491 </v>
   <v>       0.00084155      -0.89106452      -0.18019906 </v>
   <v>      -0.00257319       0.83395130      -0.19223402 </v>
   <v>      -0.00555770      -0.84195280      -0.17657500 </v>
   <v>      -0.00536260      -0.38445230      -0.03360411 </v>
   <v>       0.00006123       0.54740704      -0.02691070 </v>
   <v>      -0.00021495      -0.38845430      -0.02800278 </v>
   <v>      -0.00348359       0.37563061      -0.01378574 </v>
   <v>      -0.00901852      -0.00818038      -0.04745400 </v>
   <v>       0.03005411      -0.00246641      -0.11079833 </v>
  </varray>
  <varray name="stress" >
   <v>    -249.51469184      -0.02460499       0.12500144 </v>
   <v>      -0.02460222    -257.47819464      -0.10055920 </v>
   <v>       0.12500129      -0.10055982    -280.60401937 </v>
  </varray>
  <energy>
   <i name="e_fr_energy">   -189.11232906 </i>
   <i name="e_wo_entrp">   -189.12201197 </i>
   <i name="e_0_energy">      0.02904874 </i>
  </energy>
  <time name="totalsc">   73.18  100.14</time>
  <eigenvalues>
   <array>
    <dimension dim="1">band</dimension>
    <dimension dim="2">kpoint</dimension>
    <dimension dim="3">spin</dimension>
    <field>eigene</field>
    <field>occ</field>
    <set>
     <set comment="spin 1">
      <set comment="kpoint 1">
       <r>  -22.7400    1.0000 </r>
       <r>  -22.7056    1.0000 </r>
       <r>  -22.5977    1.0000 </r>
       <r>  -22.5721    1.0000 </r>
       <r>  -22.4195    1.0000 </r>
       <r>  -22.3873    1.0000 </r>
       <r>  -22.3703    1.0000 </r>
       <r>  -22.3301    1.0000 </r>
       <r>  -22.2902    1.0000 </r>
       <r>  -22.2851    1.0000 </r>
       <r>  -22.2721    1.0000 </r>
       <r>  -22.2707    1.0000 </r>
       <r>  -22.2519    1.0000 </r>
       <r>  -22.2340    1.0000 </r>
       <r>  -22.1880    1.0000 </r>
       <r>  -22.1836    1.0000 </r>
       <r>  -22.1748    1.0000 </r>
       <r>  -22.1532    1.0000 </r>
       <r>  -22.1310    1.0000 </r>
       <r>  -22.0368    1.0000 </r>
       <r>  -20.9907    1.0000 </r>
       <r>  -20.9681    1.0000 </r>
       <r>  -16.5436    1.0000 </r>
       <r>  -16.5431    1.0000 </r>
       <r>   -6.1814    1.0000 </r>
       <r>   -6.0766    1.0000 </r>
       <r>   -5.9240    1.0000 </r>
       <r>   -5.8439    1.0000 </r>
       <r>   -5.6735    1.0000 </r>
       <r>   -5.4830    1.0000 </r>
       <r>   -5.4108    1.0000 </r>
       <r>   -5.3855    1.0000 </r>
       <r>   -5.2892    1.0000 </r>
       <r>   -5.0912    1.0000 </r>
       <r>   -4.6183    1.0000 </r>
       <r>   -4.5667    1.0000 </r>
       <r>   -4.5218    1.0000 </r>
       <r>   -4.4825    1.0000 </r>
       <r>   -4.4286    1.0000 </r>
       <r>   -4.4120    1.0000 </r>
       <r>   -4.3725    1.0000 </r>
       <r>   -4.3333    1.0000 </r>
       <r>   -4.3292    1.0000 </r>
       <r>   -4.3130    1.0000 </r>
       <r>   -4.2948    1.0000 </r>
       <r>   -4.2831    1.0000 </r>
       <r>   -4.2530    1.0000 </r>
       <r>   -4.2386    1.0000 </r>
       <r>   -4.2341    1.0000 </r>
       <r>   -4.2180    1.0000 </r>
       <r>   -4.2003    1.0000 </r>
       <r>   -4.1982    1.0000 </r>
       <r>   -4.1774    1.0000 </r>
       <r>   -4.1666    1.0000 </r>
       <r>   -4.1594    1.0000 </r>
       <r>   -4.1455    1.0000 </r>
       <r>   -4.1118    1.0000 </r>
       <r>   -4.0847    1.0000 </r>
       <r>   -4.0623    1.0000 </r>
       <r>   -4.0247    1.0000 </r>
       <r>   -3.9948    1.0000 </r>
       <r>   -3.9120    1.0000 </r>
       <r>   -3.8751    1.0000 </r>
       <r>   -3.7071    1.0000 </r>
       <r>   -3.6309    1.0000 </r>
       <r>   -3.6220    1.0000 </r>
       <r>   -3.5888    1.0000 </r>
       <r>   -3.5456    1.0000 </r>
       <r>   -3.5219    1.0000 </r>
       <r>   -3.5137    1.0000 </r>
       <r>   -3.4985    1.0000 </r>
       <r>   -3.3933    1.0000 </r>
       <r>   -3.2999    1.0000 </r>
       <r>   -3.2681    1.0000 </r>
       <r>   -3.2247    1.0000 </r>
       <r>   -3.2219    1.0000 </r>
       <r>   -3.2178    1.0000 </r>
       <r>   -3.1792    1.0000 </r>
       <r>   -3.1699    1.0000 </r>
       <r>   -3.1262    1.0000 </r>
       <r>   -3.1163    1.0000 </r>
       <r>   -3.0612    1.0000 </r>
       <r>   -3.0405    1.0000 </r>
       <r>   -2.9594    1.0000 </r>
       <r>   -2.8637    1.0000 </r>
       <r>   -2.8426    1.0000 </r>
       <r>   -2.6570    1.0000 </r>
       <r>   -2.5806    1.0000 </r>
       <r>   -2.0875    1.0000 </r>
       <r>   -2.0580    1.0000 </r>
       <r>   -2.0376    1.0000 </r>
       <r>   -1.9941    1.0000 </r>
       <r>   -1.8263    1.0000 </r>
       <r>   -1.8015    1.0000 </r>
       <r>   -1.2885    1.0000 </r>
       <r>   -1.2787    1.0000 </r>
       <r>    0.7880    1.0000 </r>
       <r>    0.8295    1.0000 </r>
       <r>    0.8786    1.0000 </r>
       <r>    0.9052    1.0000 </r>
       <r>    0.9243    1.0000 </r>
       <r>    0.9355    1.0000 </r>
       <r>    0.9509    1.0000 </r>
       <r>    0.9729    1.0000 </r>
       <r>    0.9907    1.0000 </r>
       <r>    1.0078    1.0000 </r>
       <r>    1.0088    1.0000 </r>
       <r>    1.0478    1.0000 </r>
       <r>    1.0824    1.0000 </r>
       <r>    1.1395    1.0000 </r>
       <r>    1.1648    1.0000 </r>
       <r>    1.1671    1.0000 </r>
       <r>    1.1940    1.0001 </r>
       <r>    1.2009    1.0001 </r>
       <r>    1.2127    1.0001 </r>
       <r>    1.2264    1.0001 </r>
       <r>    1.2275    1.0001 </r>
       <r>    1.2694    1.0004 </r>
       <r>    1.2764    1.0005 </r>
       <r>    1.2958    1.0008 </r>
       <r>    1.3311    1.0017 </r>
       <r>    1.3452    1.0023 </r>
       <r>    1.3541    1.0028 </r>
       <r>    1.4594    1.0157 </r>
       <r>    1.5075    1.0264 </r>
       <r>    1.5689    1.0355 </r>
       <r>    1.6439    1.0007 </r>
       <r>    1.6625    0.9767 </r>
       <r>    1.7214    0.8458 </r>
       <r>    1.7483    0.7581 </r>
       <r>    1.7896    0.5979 </r>
       <r>    1.8047    0.5346 </r>
       <r>    1.8639    0.2918 </r>
       <r>    1.9312    0.0839 </r>
       <r>    1.9346    0.0761 </r>
       <r>    2.0179   -0.0275 </r>
       <r>    2.0566   -0.0355 </r>
       <r>    2.0618   -0.0354 </r>
       <r>    2.0775   -0.0342 </r>
       <r>    2.0777   -0.0341 </r>
       <r>    2.1083   -0.0287 </r>
       <r>    2.1244   -0.0250 </r>
       <r>    2.1839   -0.0124 </r>
       <r>    2.2044   -0.0092 </r>
       <r>    2.2165   -0.0075 </r>
       <r>    2.3004   -0.0015 </r>
       <r>    2.3437   -0.0006 </r>
       <r>    2.3735   -0.0003 </r>
       <r>    2.3786   -0.0002 </r>
       <r>    2.4062   -0.0001 </r>
       <r>    2.5285   -0.0000 </r>
       <r>    2.8763   -0.0000 </r>
       <r>    3.0589   -0.0000 </r>
       <r>    3.1808   -0.0000 </r>
       <r>    3.2340   -0.0000 </r>
       <r>    3.2396   -0.0000 </r>
       <r>    4.0702   -0.0000 </r>
       <r>    4.5644   -0.0000 </r>
       <r>    4.8770   -0.0000 </r>
       <r>    6.2136   -0.0000 </r>
      </set>
     </set>
    </set>
   </array>
  </eigenvalues>
  <separator name="orbital magnetization" >
   <v name="MAGDIPOLOUT">      0.00000000      0.00000000      0.00000000</v>
  </separator>
  <dos>
   <i name="efermi">      1.81288577 </i>
   <total>
    <array>
     <dimension dim="1">gridpoints</dimension>
     <dimension dim="2">spin</dimension>
     <field>energy</field>
     <field>total</field>
     <field>integrated</field>
     <set>
      <set comment="spin 1">
       <r>   -24.7400     0.0000     0.0000 </r>
       <r>   -24.6302     0.0000     0.0000 </r>
       <r>   -24.5203     0.0000     0.0000 </r>
       <r>   -24.4105    -0.0000    -0.0000 </r>
       <r>   -24.3006    -0.0000    -0.0000 </r>
       <r>   -24.1908    -0.0000    -0.0000 </r>
       <r>   -24.0810    -0.0000    -0.0000 </r>
       <r>   -23.9711    -0.0000    -0.0000 </r>
       <r>   -23.8613    -0.0000    -0.0000 </r>
       <r>   -23.7514    -0.0000    -0.0000 </r>
       <r>   -23.6416    -0.0000    -0.0000 </r>
       <r>   -23.5317    -0.0000    -0.0000 </r>
       <r>   -23.4219    -0.0002    -0.0000 </r>
       <r>   -23.3120    -0.0049    -0.0006 </r>
       <r>   -23.2022    -0.0669    -0.0079 </r>
       <r>   -23.0923    -0.4350    -0.0557 </r>
       <r>   -22.9825    -1.0425    -0.1702 </r>
       <r>   -22.8727     1.3345    -0.0236 </r>
       <r>   -22.7628    11.2336     1.2103 </r>
       <r>   -22.6530    22.0621     3.6338 </r>
       <r>   -22.5431    24.4670     6.3213 </r>
       <r>   -22.4333    33.5028    10.0015 </r>
       <r>   -22.3234    66.2206    17.2755 </r>
       <r>   -22.2136    93.7798    27.5768 </r>
       <r>   -22.1037    77.3038    36.0682 </r>
       <r>   -21.9939    34.1868    39.8235 </r>
       <r>   -21.8840     5.3222    40.4081 </r>
       <r>   -21.7742    -2.0605    40.1818 </r>
       <r>   -21.6644    -1.3101    40.0379 </r>
       <r>   -21.5545    -0.3128    40.0035 </r>
       <r>   -21.4447    -0.1198    39.9903 </r>
       <r>   -21.3348    -0.4732    39.9383 </r>
       <r>   -21.2250    -0.7122    39.8601 </r>
       <r>   -21.1151     3.0708    40.1974 </r>
       <r>   -21.0053    12.4784    41.5681 </r>
       <r>   -20.8954    15.6373    43.2858 </r>
       <r>   -20.7856     7.2499    44.0822 </r>
       <r>   -20.6758     0.2270    44.1071 </r>
       <r>   -20.5659    -0.7391    44.0259 </r>
       <r>   -20.4561    -0.2106    44.0028 </r>
       <r>   -20.3462    -0.0241    44.0002 </r>
       <r>   -20.2364    -0.0013    44.0000 </r>
       <r>   -20.1265    -0.0000    44.0000 </r>
       <r>   -20.0167    -0.0000    44.0000 </r>
       <r>   -19.9068    -0.0000    44.0000 </r>
       <r>   -19.7970    -0.0000    44.0000 </r>
       <r>   -19.6871    -0.0000    44.0000 </r>
       <r>   -19.5773     0.0000    44.0000 </r>
       <r>   -19.4675     0.0000    44.0000 </r>
       <r>   -19.3576     0.0000    44.0000 </r>
       <r>   -19.2478     0.0000    44.0000 </r>
       <r>   -19.1379     0.0000    44.0000 </r>
       <r>   -19.0281     0.0000    44.0000 </r>
       <r>   -18.9182     0.0000    44.0000 </r>
       <r>   -18.8084     0.0000    44.0000 </r>
       <r>   -18.6985     0.0000    44.0000 </r>
       <r>   -18.5887     0.0000    44.0000 </r>
       <r>   -18.4788     0.0000    44.0000 </r>
       <r>   -18.3690     0.0000    44.0000 </r>
       <r>   -18.2592     0.0000    44.0000 </r>
       <r>   -18.1493    -0.0000    44.0000 </r>
       <r>   -18.0395    -0.0000    44.0000 </r>
       <r>   -17.9296    -0.0000    44.0000 </r>
       <r>   -17.8198    -0.0000    44.0000 </r>
       <r>   -17.7099    -0.0000    44.0000 </r>
       <r>   -17.6001    -0.0000    44.0000 </r>
       <r>   -17.4902    -0.0000    44.0000 </r>
       <r>   -17.3804    -0.0000    44.0000 </r>
       <r>   -17.2705    -0.0001    44.0000 </r>
       <r>   -17.1607    -0.0020    43.9998 </r>
       <r>   -17.0509    -0.0335    43.9961 </r>
       <r>   -16.9410    -0.2666    43.9668 </r>
       <r>   -16.8312    -0.7996    43.8790 </r>
       <r>   -16.7213     0.7519    43.9616 </r>
       <r>   -16.6115     8.7036    44.9176 </r>
       <r>   -16.5016    16.1281    46.6892 </r>
       <r>   -16.3918    11.1480    47.9138 </r>
       <r>   -16.2819     2.0424    48.1381 </r>
       <r>   -16.1721    -0.8070    48.0495 </r>
       <r>   -16.0622    -0.3866    48.0070 </r>
       <r>   -15.9524    -0.0593    48.0005 </r>
       <r>   -15.8426    -0.0042    48.0000 </r>
       <r>   -15.7327    -0.0002    48.0000 </r>
       <r>   -15.6229    -0.0000    48.0000 </r>
       <r>   -15.5130    -0.0000    48.0000 </r>
       <r>   -15.4032    -0.0000    48.0000 </r>
       <r>   -15.2933    -0.0000    48.0000 </r>
       <r>   -15.1835     0.0000    48.0000 </r>
       <r>   -15.0736     0.0000    48.0000 </r>
       <r>   -14.9638     0.0000    48.0000 </r>
       <r>   -14.8539     0.0000    48.0000 </r>
       <r>   -14.7441     0.0000    48.0000 </r>
       <r>   -14.6343     0.0000    48.0000 </r>
       <r>   -14.5244     0.0000    48.0000 </r>
       <r>   -14.4146     0.0000    48.0000 </r>
       <r>   -14.3047     0.0000    48.0000 </r>
       <r>   -14.1949     0.0000    48.0000 </r>
       <r>   -14.0850     0.0000    48.0000 </r>
       <r>   -13.9752     0.0000    48.0000 </r>
       <r>   -13.8653     0.0000    48.0000 </r>
       <r>   -13.7555     0.0000    48.0000 </r>
       <r>   -13.6456     0.0000    48.0000 </r>
       <r>   -13.5358     0.0000    48.0000 </r>
       <r>   -13.4260     0.0000    48.0000 </r>
       <r>   -13.3161     0.0000    48.0000 </r>
       <r>   -13.2063     0.0000    48.0000 </r>
       <r>   -13.0964     0.0000    48.0000 </r>
       <r>   -12.9866     0.0000    48.0000 </r>
       <r>   -12.8767     0.0000    48.0000 </r>
       <r>   -12.7669     0.0000    48.0000 </r>
       <r>   -12.6570     0.0000    48.0000 </r>
       <r>   -12.5472     0.0000    48.0000 </r>
       <r>   -12.4374     0.0000    48.0000 </r>
       <r>   -12.3275     0.0000    48.0000 </r>
       <r>   -12.2177     0.0000    48.0000 </r>
       <r>   -12.1078     0.0000    48.0000 </r>
       <r>   -11.9980     0.0000    48.0000 </r>
       <r>   -11.8881     0.0000    48.0000 </r>
       <r>   -11.7783     0.0000    48.0000 </r>
       <r>   -11.6684     0.0000    48.0000 </r>
       <r>   -11.5586     0.0000    48.0000 </r>
       <r>   -11.4487     0.0000    48.0000 </r>
       <r>   -11.3389     0.0000    48.0000 </r>
       <r>   -11.2291     0.0000    48.0000 </r>
       <r>   -11.1192     0.0000    48.0000 </r>
       <r>   -11.0094     0.0000    48.0000 </r>
       <r>   -10.8995     0.0000    48.0000 </r>
       <r>   -10.7897     0.0000    48.0000 </r>
       <r>   -10.6798     0.0000    48.0000 </r>
       <r>   -10.5700     0.0000    48.0000 </r>
       <r>   -10.4601     0.0000    48.0000 </r>
       <r>   -10.3503     0.0000    48.0000 </r>
       <r>   -10.2404     0.0000    48.0000 </r>
       <r>   -10.1306     0.0000    48.0000 </r>
       <r>   -10.0208     0.0000    48.0000 </r>
       <r>    -9.9109     0.0000    48.0000 </r>
       <r>    -9.8011     0.0000    48.0000 </r>
       <r>    -9.6912     0.0000    48.0000 </r>
       <r>    -9.5814     0.0000    48.0000 </r>
       <r>    -9.4715     0.0000    48.0000 </r>
       <r>    -9.3617     0.0000    48.0000 </r>
       <r>    -9.2518     0.0000    48.0000 </r>
       <r>    -9.1420     0.0000    48.0000 </r>
       <r>    -9.0321     0.0000    48.0000 </r>
       <r>    -8.9223     0.0000    48.0000 </r>
       <r>    -8.8125     0.0000    48.0000 </r>
       <r>    -8.7026     0.0000    48.0000 </r>
       <r>    -8.5928     0.0000    48.0000 </r>
       <r>    -8.4829     0.0000    48.0000 </r>
       <r>    -8.3731     0.0000    48.0000 </r>
       <r>    -8.2632     0.0000    48.0000 </r>
       <r>    -8.1534     0.0000    48.0000 </r>
       <r>    -8.0435     0.0000    48.0000 </r>
       <r>    -7.9337     0.0000    48.0000 </r>
       <r>    -7.8238    -0.0000    48.0000 </r>
       <r>    -7.7140    -0.0000    48.0000 </r>
       <r>    -7.6042    -0.0000    48.0000 </r>
       <r>    -7.4943    -0.0000    48.0000 </r>
       <r>    -7.3845    -0.0000    48.0000 </r>
       <r>    -7.2746    -0.0000    48.0000 </r>
       <r>    -7.1648    -0.0000    48.0000 </r>
       <r>    -7.0549    -0.0000    48.0000 </r>
       <r>    -6.9451    -0.0000    48.0000 </r>
       <r>    -6.8352    -0.0004    48.0000 </r>
       <r>    -6.7254    -0.0075    47.9991 </r>
       <r>    -6.6155    -0.0813    47.9902 </r>
       <r>    -6.5057    -0.4041    47.9458 </r>
       <r>    -6.3959    -0.5408    47.8864 </r>
       <r>    -6.2860     2.3113    48.1403 </r>
       <r>    -6.1762     9.5828    49.1929 </r>
       <r>    -6.0663    15.4631    50.8915 </r>
       <r>    -5.9565    17.0435    52.7636 </r>
       <r>    -5.8466    17.0506    54.6365 </r>
       <r>    -5.7368    14.2009    56.1964 </r>
       <r>    -5.6269    10.9900    57.4036 </r>
       <r>    -5.5171    14.5680    59.0039 </r>
       <r>    -5.4073    23.9940    61.6395 </r>
       <r>    -5.2974    25.2314    64.4110 </r>
       <r>    -5.1876    16.3210    66.2038 </r>
       <r>    -5.0777     9.7302    67.2726 </r>
       <r>    -4.9679     5.3501    67.8603 </r>
       <r>    -4.8580     0.0397    67.8647 </r>
       <r>    -4.7482    -0.3011    67.8316 </r>
       <r>    -4.6383    10.3937    68.9733 </r>
       <r>    -4.5285    30.1194    72.2818 </r>
       <r>    -4.4186    55.6039    78.3896 </r>
       <r>    -4.3088    91.4974    88.4402 </r>
       <r>    -4.1990   120.6514   101.6932 </r>
       <r>    -4.0891   109.3542   113.7052 </r>
       <r>    -3.9793    67.2048   121.0874 </r>
       <r>    -3.8694    31.4742   124.5447 </r>
       <r>    -3.7596    18.8311   126.6132 </r>
       <r>    -3.6497    32.2224   130.1526 </r>
       <r>    -3.5399    51.6804   135.8295 </r>
       <r>    -3.4300    48.9583   141.2073 </r>
       <r>    -3.3202    43.7350   146.0114 </r>
       <r>    -3.2103    60.6867   152.6776 </r>
       <r>    -3.1005    69.6010   160.3229 </r>
       <r>    -2.9907    51.7278   166.0050 </r>
       <r>    -2.8808    31.1939   169.4315 </r>
       <r>    -2.7710    20.6047   171.6948 </r>
       <r>    -2.6611    16.6953   173.5287 </r>
       <r>    -2.5513    14.6208   175.1347 </r>
       <r>    -2.4414     7.2776   175.9341 </r>
       <r>    -2.3316    -0.4802   175.8814 </r>
       <r>    -2.2217     1.2931   176.0234 </r>
       <r>    -2.1119    16.5118   177.8372 </r>
       <r>    -2.0020    31.2666   181.2717 </r>
       <r>    -1.8922    29.5245   184.5148 </r>
       <r>    -1.7824    20.5054   186.7672 </r>
       <r>    -1.6725    10.3893   187.9084 </r>
       <r>    -1.5627     1.0950   188.0287 </r>
       <r>    -1.4528     0.2500   188.0562 </r>
       <r>    -1.3430     9.0721   189.0527 </r>
       <r>    -1.2331    16.1356   190.8251 </r>
       <r>    -1.1233    10.3399   191.9609 </r>
       <r>    -1.0134     1.5704   192.1334 </r>
       <r>    -0.9036    -0.8174   192.0436 </r>
       <r>    -0.7937    -0.3443   192.0058 </r>
       <r>    -0.6839    -0.0495   192.0004 </r>
       <r>    -0.5741    -0.0033   192.0000 </r>
       <r>    -0.4642    -0.0001   192.0000 </r>
       <r>    -0.3544    -0.0000   192.0000 </r>
       <r>    -0.2445    -0.0000   192.0000 </r>
       <r>    -0.1347    -0.0000   192.0000 </r>
       <r>    -0.0248    -0.0000   192.0000 </r>
       <r>     0.0850    -0.0001   192.0000 </r>
       <r>     0.1949    -0.0029   191.9997 </r>
       <r>     0.3047    -0.0471   191.9945 </r>
       <r>     0.4146    -0.4053   191.9500 </r>
       <r>     0.5244    -1.6757   191.7659 </r>
       <r>     0.6342    -1.9561   191.5510 </r>
       <r>     0.7441     9.0597   192.5462 </r>
       <r>     0.8539    41.0863   197.0593 </r>
       <r>     0.9638    76.9892   205.5162 </r>
       <r>     1.0736    91.7282   215.5922 </r>
       <r>     1.1835    98.2030   226.3793 </r>
       <r>     1.2933    98.5368   237.2031 </r>
       <r>     1.4032    71.4230   245.0486 </r>
       <r>     1.5130    40.3034   249.4757 </r>
       <r>     1.6228    34.6431   253.2811 </r>
       <r>     1.7327    43.9845   258.1126 </r>
       <r>     1.8425    48.5381   263.4443 </r>
       <r>     1.9524    51.8013   269.1344 </r>
       <r>     2.0622    65.5111   276.3305 </r>
       <r>     2.1721    72.8491   284.3326 </r>
       <r>     2.2819    62.9002   291.2419 </r>
       <r>     2.3918    50.3063   296.7678 </r>
       <r>     2.5016    33.6679   300.4661 </r>
       <r>     2.6115    13.3072   301.9278 </r>
       <r>     2.7213     2.3459   302.1855 </r>
       <r>     2.8311     3.5828   302.5791 </r>
       <r>     2.9410     8.5374   303.5169 </r>
       <r>     3.0508    13.4942   304.9991 </r>
       <r>     3.1607    22.3316   307.4522 </r>
       <r>     3.2705    26.1157   310.3209 </r>
       <r>     3.3804    14.9298   311.9608 </r>
       <r>     3.4902     2.1850   312.2008 </r>
       <r>     3.6001    -1.2520   312.0633 </r>
       <r>     3.7099    -0.7518   311.9807 </r>
       <r>     3.8198    -0.4623   311.9300 </r>
       <r>     3.9296     1.3494   312.0782 </r>
       <r>     4.0394     6.0429   312.7420 </r>
       <r>     4.1493     7.8341   313.6025 </r>
       <r>     4.2591     3.4707   313.9838 </r>
       <r>     4.3690     0.2278   314.0088 </r>
       <r>     4.4788     3.0312   314.3417 </r>
       <r>     4.5887     7.3150   315.1453 </r>
       <r>     4.6985     6.6756   315.8786 </r>
       <r>     4.8084     5.8988   316.5265 </r>
       <r>     4.9182     7.6994   317.3723 </r>
       <r>     5.0281     5.3556   317.9605 </r>
       <r>     5.1379     0.9923   318.0695 </r>
       <r>     5.2477    -0.4063   318.0249 </r>
       <r>     5.3576    -0.1946   318.0035 </r>
       <r>     5.4674    -0.0299   318.0002 </r>
       <r>     5.5773    -0.0027   317.9999 </r>
       <r>     5.6871    -0.0109   317.9987 </r>
       <r>     5.7970    -0.0989   317.9879 </r>
       <r>     5.9068    -0.3653   317.9478 </r>
       <r>     6.0167     0.0488   317.9531 </r>
       <r>     6.1265     3.4762   318.3349 </r>
       <r>     6.2364     7.7972   319.1914 </r>
       <r>     6.3462     6.3840   319.8927 </r>
       <r>     6.4560     1.6221   320.0709 </r>
       <r>     6.5659    -0.3547   320.0319 </r>
       <r>     6.6757    -0.2433   320.0052 </r>
       <r>     6.7856    -0.0434   320.0004 </r>
       <r>     6.8954    -0.0035   320.0000 </r>
       <r>     7.0053    -0.0001   320.0000 </r>
       <r>     7.1151    -0.0000   320.0000 </r>
       <r>     7.2250    -0.0000   320.0000 </r>
       <r>     7.3348    -0.0000   320.0000 </r>
       <r>     7.4447    -0.0000   320.0000 </r>
       <r>     7.5545     0.0000   320.0000 </r>
       <r>     7.6643     0.0000   320.0000 </r>
       <r>     7.7742     0.0000   320.0000 </r>
       <r>     7.8840     0.0000   320.0000 </r>
       <r>     7.9939     0.0000   320.0000 </r>
       <r>     8.1037     0.0000   320.0000 </r>
       <r>     8.2136     0.0000   320.0000 </r>
      </set>
     </set>
    </array>
   </total>
  </dos>
 </calculation>
 <structure name="finalpos" >
  <crystal>
   <varray name="basis" >
    <v>       3.26603300       0.00000000       0.00000000 </v>
    <v>       0.00000000      20.54938400       0.00000000 </v>
    <v>       0.00000000       0.00000000       6.79221100 </v>
   </varray>
   <i name="volume">    455.85901219 </i>
   <varray name="rec_basis" >
    <v>       0.30618184       0.00000000       0.00000000 </v>
    <v>       0.00000000       0.04866326       0.00000000 </v>
    <v>       0.00000000       0.00000000       0.14722746 </v>
   </varray>
  </crystal>
  <varray name="positions" >
   <v>       0.00000000       0.16671900       0.50139100 </v>
   <v>       0.00000000       0.83638000       0.50139100 </v>
   <v>       0.00000000       0.66671900       0.00139100 </v>
   <v>       0.00000000       0.33328100       0.00139100 </v>
   <v>       0.50000000       0.16602100       0.00000400 </v>
   <v>       0.50000000       0.83397900       0.00000400 </v>
   <v>       0.50000000       0.66602100       0.50000400 </v>
   <v>       0.50000000       0.33397900       0.50000400 </v>
   <v>       0.00000000       0.00000000       0.01216200 </v>
   <v>       0.00000000       0.50000000       0.51216200 </v>
   <v>       0.50000000       0.00000000       0.47240000 </v>
   <v>       0.50000000       0.50000000       0.97240000 </v>
   <v>       0.00000000       0.00000000       0.31436200 </v>
   <v>       0.00000000       0.50000000       0.81377800 </v>
   <v>       0.00000000       0.16816900       0.20771700 </v>
   <v>       0.00000000       0.83183100       0.20329900 </v>
   <v>       0.00000000       0.66816900       0.70329900 </v>
   <v>       0.00000000       0.33183100       0.70329900 </v>
   <v>       0.00000000       0.16838200       0.79272800 </v>
   <v>       0.00000000       0.83161800       0.79934600 </v>
   <v>       0.00000000       0.66838200       0.29934600 </v>
   <v>       0.99382600       0.33161800       0.30469700 </v>
   <v>       0.50000000       0.06837200       0.99633700 </v>
   <v>       0.50000000       0.93162800       0.99633700 </v>
   <v>       0.50000000       0.56837200       0.49633700 </v>
   <v>       0.50000000       0.43162800       0.49633700 </v>
   <v>       0.50000000       0.09818400       0.50567900 </v>
   <v>       0.50000000       0.90420700       0.50567900 </v>
   <v>       0.50000000       0.59818400       0.00567900 </v>
   <v>       0.50000000       0.40181600       0.00567900 </v>
   <v>       0.50000000       0.23406000       0.50152500 </v>
   <v>       0.50000000       0.76594000       0.50152500 </v>
   <v>       0.50000000       0.73406000       0.00152500 </v>
   <v>       0.50000000       0.26594000       0.00152500 </v>
   <v>       0.00066100       0.00000000       0.69176400 </v>
   <v>       0.99779800       0.50000000       0.19474100 </v>
  </varray>
 </structure>
</modeling>
