<?xml version="1.0" encoding="ISO-8859-1"?>
<modeling>
 <generator>
  <i name="program" type="string">vasp </i>
  <i name="version" type="string">5.3.5  </i>
  <i name="subversion" type="string">31Mar14 (build Aug 29 2014 19:41:47) complex                          parallel </i>
  <i name="platform" type="string">LinuxIFC </i>
  <i name="date" type="string">2019 04 11 </i>
  <i name="time" type="string">13:57:21 </i>
 </generator>
 <incar>
  <i type="string" name="SYSTEM"> Fe4OF8_var_12</i>
  <i type="int" name="ISTART">     0</i>
  <i type="string" name="PREC">normal</i>
  <i type="string" name="ALGO"> VeryFast</i>
  <i type="int" name="ISPIN">     1</i>
  <i type="int" name="ICHARG">     2</i>
  <i type="int" name="NELM">   300</i>
  <i type="int" name="ISYM">     0</i>
  <i type="logical" name="LWAVE"> F  </i>
  <i type="int" name="NELM">   300</i>
 </incar>
 <kpoints>
  <generation param="Gamma">
   <v type="int" name="divisions">       1        1        1 </v>
   <v name="usershift">      0.00000000       0.00000000       0.00000000 </v>
   <v name="genvec1">      1.00000000       0.00000000       0.00000000 </v>
   <v name="genvec2">      0.00000000       1.00000000       0.00000000 </v>
   <v name="genvec3">     -0.00000000       0.00000000       1.00000000 </v>
   <v name="shift">      0.00000000       0.00000000       0.00000000 </v>
  </generation>
  <varray name="kpointlist" >
   <v>       0.00000000       0.00000000       0.00000000 </v>
  </varray>
  <varray name="weights" >
   <v>       1.00000000 </v>
  </varray>
 </kpoints>
 <parameters>
  <separator name="general" >
   <i type="string" name="SYSTEM">Fe4OF8_var_12</i>
   <i type="logical" name="LCOMPAT"> F  </i>
  </separator>
  <separator name="electronic" >
   <i type="string" name="PREC">normal</i>
   <i name="ENMAX">    400.00000000</i>
   <i name="ENAUG">    613.61400000</i>
   <i name="EDIFF">      0.00010000</i>
   <i type="int" name="IALGO">    48</i>
   <i type="int" name="IWAVPR">    10</i>
   <i type="int" name="NBANDS">   228</i>
   <i name="NELECT">    376.00000000</i>
   <i type="int" name="TURBO">     0</i>
   <i type="int" name="IRESTART">     0</i>
   <i type="int" name="NREBOOT">     0</i>
   <i type="int" name="NMIN">     0</i>
   <i name="EREF">      0.00000000</i>
   <separator name="electronic smearing" >
    <i type="int" name="ISMEAR">     1</i>
    <i name="SIGMA">      0.20000000</i>
    <i name="KSPACING">      0.50000000</i>
    <i type="logical" name="KGAMMA"> T  </i>
   </separator>
   <separator name="electronic projectors" >
    <i type="logical" name="LREAL"> F  </i>
    <v name="ROPT">      0.00000000      0.00000000      0.00000000</v>
    <i type="int" name="LMAXPAW">  -100</i>
    <i type="int" name="LMAXMIX">     2</i>
    <i type="logical" name="NLSPLINE"> F  </i>
   </separator>
   <separator name="electronic startup" >
    <i type="int" name="ISTART">     0</i>
    <i type="int" name="ICHARG">     2</i>
    <i type="int" name="INIWAV">     1</i>
   </separator>
   <separator name="electronic spin" >
    <i type="int" name="ISPIN">     1</i>
    <i type="logical" name="LNONCOLLINEAR"> F  </i>
    <v name="MAGMOM">      1.00000000      1.00000000      1.00000000      1.00000000      1.00000000      1.00000000      1.00000000      1.00000000      1.00000000      1.00000000      1.00000000      1.00000000      1.00000000      1.00000000      1.00000000      1.00000000      1.00000000      1.00000000      1.00000000      1.00000000
      1.00000000      1.00000000      1.00000000      1.00000000      1.00000000      1.00000000      1.00000000      1.00000000      1.00000000      1.00000000      1.00000000      1.00000000      1.00000000      1.00000000      1.00000000      1.00000000      1.00000000      1.00000000      1.00000000      1.00000000
      1.00000000      1.00000000      1.00000000      1.00000000      1.00000000      1.00000000      1.00000000      1.00000000      1.00000000      1.00000000      1.00000000      1.00000000</v>
    <i name="NUPDOWN">     -1.00000000</i>
    <i type="logical" name="LSORBIT"> F  </i>
    <v name="SAXIS">      0.00000000      0.00000000      1.00000000</v>
    <i type="logical" name="LSPIRAL"> F  </i>
    <v name="QSPIRAL">      0.00000000      0.00000000      0.00000000</v>
    <i type="logical" name="LZEROZ"> F  </i>
   </separator>
   <separator name="electronic exchange-correlation" >
    <i type="logical" name="LASPH"> F  </i>
    <i type="logical" name="LMETAGGA"> F  </i>
   </separator>
   <separator name="electronic convergence" >
    <i type="int" name="NELM">   300</i>
    <i type="int" name="NELMDL">   -12</i>
    <i type="int" name="NELMIN">     2</i>
    <i name="ENINI">    400.00000000</i>
    <separator name="electronic convergence detail" >
     <i type="logical" name="LDIAG"> T  </i>
     <i type="logical" name="LSUBROT"> F  </i>
     <i name="WEIMIN">      0.00000000</i>
     <i name="EBREAK">      0.00000011</i>
     <i name="DEPER">      0.30000000</i>
     <i type="int" name="NRMM">     4</i>
     <i name="TIME">      0.40000000</i>
    </separator>
   </separator>
   <separator name="electronic mixer" >
    <i name="AMIX">      0.40000000</i>
    <i name="BMIX">      1.00000000</i>
    <i name="AMIN">      0.10000000</i>
    <i name="AMIX_MAG">      1.60000000</i>
    <i name="BMIX_MAG">      1.00000000</i>
    <separator name="electronic mixer details" >
     <i type="int" name="IMIX">     4</i>
     <i type="int" name="MAXMIX">   -45</i>
     <i name="WC">    100.00000000</i>
     <i type="int" name="INIMIX">     1</i>
     <i type="int" name="MIXPRE">     1</i>
     <i type="int" name="MREMOVE">     5</i>
    </separator>
   </separator>
   <separator name="electronic dipolcorrection" >
    <i type="logical" name="LDIPOL"> F  </i>
    <i type="logical" name="LMONO"> F  </i>
    <i type="int" name="IDIPOL">     0</i>
    <i name="EPSILON">      1.00000000</i>
    <v name="DIPOL">   -100.00000000   -100.00000000   -100.00000000</v>
    <i name="EFIELD">      0.00000000</i>
   </separator>
  </separator>
  <separator name="grids" >
   <i type="int" name="NGX">    48</i>
   <i type="int" name="NGY">    28</i>
   <i type="int" name="NGZ">    80</i>
   <i type="int" name="NGXF">    96</i>
   <i type="int" name="NGYF">    56</i>
   <i type="int" name="NGZF">   160</i>
   <i type="logical" name="ADDGRID"> F  </i>
  </separator>
  <separator name="ionic" >
   <i type="int" name="NSW">     0</i>
   <i type="int" name="IBRION">    -1</i>
   <i type="int" name="ISIF">     2</i>
   <i name="PSTRESS">      0.00000000</i>
   <i name="EDIFFG">      0.00100000</i>
   <i type="int" name="NFREE">     0</i>
   <i name="POTIM">      0.50000000</i>
   <i name="SMASS">     -3.00000000</i>
   <i name="SCALEE">      1.00000000</i>
  </separator>
  <separator name="ionic md" >
   <i name="TEBEG">      0.00010000</i>
   <i name="TEEND">      0.00010000</i>
   <i type="int" name="NBLOCK">     1</i>
   <i type="int" name="KBLOCK">     1</i>
   <i type="int" name="NPACO">   256</i>
   <i name="APACO">     16.00000000</i>
  </separator>
  <separator name="symmetry" >
   <i type="int" name="ISYM">     0</i>
   <i name="SYMPREC">      0.00001000</i>
  </separator>
  <separator name="dos" >
   <i type="logical" name="LORBIT"> F  </i>
   <v name="RWIGS">     -1.00000000     -1.00000000     -1.00000000</v>
   <i type="int" name="NEDOS">   301</i>
   <i name="EMIN">     10.00000000</i>
   <i name="EMAX">    -10.00000000</i>
   <i name="EFERMI">      0.00000000</i>
  </separator>
  <separator name="writing" >
   <i type="int" name="NWRITE">     2</i>
   <i type="logical" name="LWAVE"> F  </i>
   <i type="logical" name="LCHARG"> T  </i>
   <i type="logical" name="LPARD"> F  </i>
   <i type="logical" name="LVTOT"> F  </i>
   <i type="logical" name="LVHAR"> F  </i>
   <i type="logical" name="LELF"> F  </i>
   <i type="logical" name="LOPTICS"> F  </i>
   <v name="STM">      0.00000000      0.00000000      0.00000000      0.00000000      0.00000000      0.00000000      0.00000000</v>
  </separator>
  <separator name="performance" >
   <i type="int" name="NPAR">     4</i>
   <i type="int" name="NSIM">     4</i>
   <i type="int" name="NBLK">    -1</i>
   <i type="logical" name="LPLANE"> T  </i>
   <i type="logical" name="LSCALAPACK"> T  </i>
   <i type="logical" name="LSCAAWARE"> F  </i>
   <i type="logical" name="LSCALU"> F  </i>
   <i type="logical" name="LASYNC"> F  </i>
   <i type="logical" name="LORBITALREAL"> F  </i>
  </separator>
  <separator name="miscellaneous" >
   <i type="int" name="IDIOT">     3</i>
   <i type="logical" name="LMUSIC"> F  </i>
   <v name="POMASS">     55.84700000     16.00000000     18.99800000</v>
   <v name="DARWINR">      0.00000000      0.00000000      0.00000000</v>
   <v name="DARWINV">      1.00000000      1.00000000      1.00000000</v>
   <i type="logical" name="LCORR"> T  </i>
  </separator>
  <i type="logical" name="GGA_COMPAT"> T  </i>
  <i type="logical" name="LBERRY"> F  </i>
  <i type="int" name="ICORELEVEL">     0</i>
  <i type="logical" name="LDAU"> F  </i>
  <i type="int" name="I_CONSTRAINED_M">     0</i>
  <separator name="electronic exchange-correlation" >
   <i type="string" name="GGA">--</i>
   <i type="int" name="VOSKOWN">     0</i>
   <i type="logical" name="LHFCALC"> F  </i>
   <i type="string" name="PRECFOCK"></i>
   <i type="logical" name="LSYMGRAD"> F  </i>
   <i type="logical" name="LHFONE"> F  </i>
   <i type="logical" name="LRHFCALC"> F  </i>
   <i type="logical" name="LTHOMAS"> F  </i>
   <i type="logical" name="LMODELHF"> F  </i>
   <i name="ENCUT4O">     -1.00000000</i>
   <i type="int" name="EXXOEP">     0</i>
   <i type="int" name="FOURORBIT">     0</i>
   <i name="AEXX">      0.00000000</i>
   <i name="HFALPHA">      0.00000000</i>
   <i name="MCALPHA">      0.00000000</i>
   <i name="ALDAX">      1.00000000</i>
   <i name="AGGAX">      1.00000000</i>
   <i name="ALDAC">      1.00000000</i>
   <i name="AGGAC">      1.00000000</i>
   <i type="int" name="NKREDX">     1</i>
   <i type="int" name="NKREDY">     1</i>
   <i type="int" name="NKREDZ">     1</i>
   <i type="logical" name="SHIFTRED"> F  </i>
   <i type="logical" name="ODDONLY"> F  </i>
   <i type="logical" name="EVENONLY"> F  </i>
   <i type="int" name="LMAXFOCK">     0</i>
   <i type="int" name="NMAXFOCKAE">     0</i>
   <i type="logical" name="LFOCKAEDFT"> F  </i>
   <i name="HFSCREEN">      0.00000000</i>
   <i name="HFSCREENC">      0.00000000</i>
   <i type="int" name="NBANDSGWLOW">     0</i>
  </separator>
  <separator name="vdW DFT" >
   <i type="logical" name="LUSE_VDW"> F  </i>
   <i name="Zab_VDW">     -0.84910000</i>
   <i name="PARAM1">      0.12340000</i>
   <i name="PARAM2">      1.00000000</i>
   <i name="PARAM3">      0.00000000</i>
  </separator>
  <separator name="model GW" >
   <i type="int" name="MODEL_GW">     0</i>
   <i name="MODEL_EPS0">      8.69476215</i>
   <i name="MODEL_ALPHA">      1.00000000</i>
  </separator>
  <separator name="linear response parameters" >
   <i type="logical" name="LEPSILON"> F  </i>
   <i type="logical" name="LRPA"> F  </i>
   <i type="logical" name="LNABLA"> F  </i>
   <i type="logical" name="LVEL"> F  </i>
   <i type="int" name="KINTER">     0</i>
   <i name="CSHIFT">      0.10000000</i>
   <i name="OMEGAMAX">     -1.00000000</i>
   <i name="DEG_THRESHOLD">      0.00200000</i>
  </separator>
  <separator name="orbital magnetization" >
   <i type="logical" name="NUCIND"> F  </i>
   <v name="MAGPOS">      0.00000000      0.00000000      0.00000000</v>
   <i type="logical" name="LNICSALL"> T  </i>
   <i type="logical" name="ORBITALMAG"> F  </i>
   <i type="logical" name="LMAGBLOCH"> F  </i>
   <i type="logical" name="LCHIMAG"> F  </i>
   <i type="logical" name="LGAUGE"> T  </i>
   <i type="int" name="MAGATOM">     0</i>
   <v name="MAGDIPOL">      0.00000000      0.00000000      0.00000000</v>
   <v name="AVECCONST">      0.00000000      0.00000000      0.00000000</v>
  </separator>
  <separator name="response functions" >
   <i type="logical" name="LADDER"> F  </i>
   <i type="logical" name="LFXC"> F  </i>
   <i type="logical" name="LHARTREE"> T  </i>
   <i type="int" name="IBSE">     0</i>
   <i type="logical" name="LTCTE"> F  </i>
   <i type="logical" name="LTETE"> F  </i>
   <i type="logical" name="LTRIPLET"> F  </i>
   <i type="logical" name="LFXCEPS"> F  </i>
   <i type="logical" name="LFXHEG"> F  </i>
   <i type="logical" name="L2ORDER"> F  </i>
   <i type="logical" name="LUSEW"> F  </i>
   <i name="ENCUTGW">     -2.00000000</i>
   <i name="ENCUTGWSOFT">     -2.00000000</i>
   <i name="ENCUTLF">     -1.00000000</i>
   <i type="int" name="LMAXMP2">    -1</i>
   <i name="SCISSOR">      0.00000000</i>
   <i type="int" name="NOMEGA">     0</i>
   <i type="int" name="NOMEGAR">     0</i>
   <i type="int" name="NBANDSGW">    -1</i>
   <i type="int" name="NBANDSO">    -1</i>
   <i type="int" name="NBANDSV">    -1</i>
   <i type="int" name="NELM">   300</i>
   <i type="int" name="DIM">     3</i>
   <i type="int" name="ANTIRES">     0</i>
   <i name="OMEGAMAX">    -30.00000000</i>
   <i name="OMEGAMIN">    -30.00000000</i>
   <i name="OMEGATL">   -200.00000000</i>
   <i type="int" name="OMEGAGRID">     0</i>
   <i name="CSHIFT">     -0.10000000</i>
   <i type="logical" name="SELFENERGY"> F  </i>
   <i type="logical" name="LSPECTRAL"> F  </i>
   <i type="logical" name="ODDONLYGW"> F  </i>
   <i type="logical" name="EVENONLYGW"> F  </i>
   <i type="int" name="NKREDLFX">     1</i>
   <i type="int" name="NKREDLFY">     1</i>
   <i type="int" name="NKREDLFZ">     1</i>
   <i type="int" name="MAXMEM">  1800</i>
   <i type="int" name="TELESCOPE">     0</i>
   <i type="int" name="TAUPAR">     1</i>
  </separator>
  <separator name="External order field" >
   <i name="OFIELD_KAPPA">      0.00000000</i>
   <v name="OFIELD_K">      0.00000000      0.00000000      0.00000000</v>
   <i name="OFIELD_Q6_NEAR">      0.00000000</i>
   <i name="OFIELD_Q6_FAR">      0.00000000</i>
   <i name="OFIELD_A">      0.00000000</i>
  </separator>
 </parameters>
 <atominfo>
  <atoms>      52 </atoms>
  <types>       3 </types>
  <array name="atoms" >
   <dimension dim="1">ion</dimension>
   <field type="string">element</field>
   <field type="int">atomtype</field>
   <set>
    <rc><c>Fe</c><c>   1</c></rc>
    <rc><c>Fe</c><c>   1</c></rc>
    <rc><c>Fe</c><c>   1</c></rc>
    <rc><c>Fe</c><c>   1</c></rc>
    <rc><c>Fe</c><c>   1</c></rc>
    <rc><c>Fe</c><c>   1</c></rc>
    <rc><c>Fe</c><c>   1</c></rc>
    <rc><c>Fe</c><c>   1</c></rc>
    <rc><c>Fe</c><c>   1</c></rc>
    <rc><c>Fe</c><c>   1</c></rc>
    <rc><c>Fe</c><c>   1</c></rc>
    <rc><c>Fe</c><c>   1</c></rc>
    <rc><c>Fe</c><c>   1</c></rc>
    <rc><c>Fe</c><c>   1</c></rc>
    <rc><c>Fe</c><c>   1</c></rc>
    <rc><c>Fe</c><c>   1</c></rc>
    <rc><c>O </c><c>   2</c></rc>
    <rc><c>O </c><c>   2</c></rc>
    <rc><c>O </c><c>   2</c></rc>
    <rc><c>O </c><c>   2</c></rc>
    <rc><c>F </c><c>   3</c></rc>
    <rc><c>F </c><c>   3</c></rc>
    <rc><c>F </c><c>   3</c></rc>
    <rc><c>F </c><c>   3</c></rc>
    <rc><c>F </c><c>   3</c></rc>
    <rc><c>F </c><c>   3</c></rc>
    <rc><c>F </c><c>   3</c></rc>
    <rc><c>F </c><c>   3</c></rc>
    <rc><c>F </c><c>   3</c></rc>
    <rc><c>F </c><c>   3</c></rc>
    <rc><c>F </c><c>   3</c></rc>
    <rc><c>F </c><c>   3</c></rc>
    <rc><c>F </c><c>   3</c></rc>
    <rc><c>F </c><c>   3</c></rc>
    <rc><c>F </c><c>   3</c></rc>
    <rc><c>F </c><c>   3</c></rc>
    <rc><c>F </c><c>   3</c></rc>
    <rc><c>F </c><c>   3</c></rc>
    <rc><c>F </c><c>   3</c></rc>
    <rc><c>F </c><c>   3</c></rc>
    <rc><c>F </c><c>   3</c></rc>
    <rc><c>F </c><c>   3</c></rc>
    <rc><c>F </c><c>   3</c></rc>
    <rc><c>F </c><c>   3</c></rc>
    <rc><c>F </c><c>   3</c></rc>
    <rc><c>F </c><c>   3</c></rc>
    <rc><c>F </c><c>   3</c></rc>
    <rc><c>F </c><c>   3</c></rc>
    <rc><c>F </c><c>   3</c></rc>
    <rc><c>F </c><c>   3</c></rc>
    <rc><c>F </c><c>   3</c></rc>
    <rc><c>F </c><c>   3</c></rc>
   </set>
  </array>
  <array name="atomtypes" >
   <dimension dim="1">type</dimension>
   <field type="int">atomspertype</field>
   <field type="string">element</field>
   <field>mass</field>
   <field>valence</field>
   <field type="string">pseudopotential</field>
   <set>
    <rc><c>  16</c><c>Fe</c><c>     55.84700000</c><c>      8.00000000</c><c>  PAW_PBE Fe 06Sep2000                  </c></rc>
    <rc><c>   4</c><c>O </c><c>     16.00000000</c><c>      6.00000000</c><c>  PAW_PBE O 08Apr2002                   </c></rc>
    <rc><c>  32</c><c>F </c><c>     18.99800000</c><c>      7.00000000</c><c>  PAW_PBE F 08Apr2002                   </c></rc>
   </set>
  </array>
 </atominfo>
 <structure name="initialpos" >
  <crystal>
   <varray name="basis" >
    <v>       9.40119100       0.00000000      -0.00865400 </v>
    <v>       0.00000000       5.35946700       0.00000000 </v>
    <v>       0.00000000       0.00000000      14.95565100 </v>
   </varray>
   <i name="volume">    753.54605297 </i>
   <varray name="rec_basis" >
    <v>       0.10636950       0.00000000       0.00000000 </v>
    <v>       0.00000000       0.18658572       0.00000000 </v>
    <v>       0.00006155       0.00000000       0.06686436 </v>
   </varray>
  </crystal>
  <varray name="positions" >
   <v>       0.16411200       0.48397600       0.17995900 </v>
   <v>       0.16411200       0.51326900       0.67995900 </v>
   <v>       0.66411200       0.98397600       0.17995900 </v>
   <v>       0.66411200       0.01602400       0.67995900 </v>
   <v>       0.17533200       0.47285200       0.97303200 </v>
   <v>       0.17533200       0.52714800       0.47303200 </v>
   <v>       0.67533200       0.97285200       0.97303200 </v>
   <v>       0.67533200       0.02714800       0.47303200 </v>
   <v>       0.33162900       0.02941400       0.82240100 </v>
   <v>       0.33162900       0.97058600       0.32240100 </v>
   <v>       0.83162900       0.52941400       0.82240100 </v>
   <v>       0.83162900       0.47886600       0.32240100 </v>
   <v>       0.33361900       0.00432000       0.51711500 </v>
   <v>       0.33361900       0.99568000       0.01711500 </v>
   <v>       0.83361900       0.50432000       0.51711500 </v>
   <v>       0.83361900       0.49568000       0.01711500 </v>
   <v>       0.30926400       0.27210900       0.92544800 </v>
   <v>       0.30926400       0.73259200       0.42544800 </v>
   <v>       0.80926400       0.76740800       0.92544800 </v>
   <v>       0.80926400       0.23259200       0.42692400 </v>
   <v>       0.00386100       0.36884200       0.24394900 </v>
   <v>       0.00386100       0.63115800       0.74394900 </v>
   <v>       0.50386100       0.86884200       0.23610300 </v>
   <v>       0.50386100       0.13115800       0.74394900 </v>
   <v>       0.02591400       0.39537700       0.57915900 </v>
   <v>       0.02591400       0.60462300       0.07915900 </v>
   <v>       0.52591400       0.89537700       0.57915900 </v>
   <v>       0.52591400       0.10462300       0.07485400 </v>
   <v>       0.17611800       0.21417000       0.08350500 </v>
   <v>       0.17611800       0.78583000       0.58350500 </v>
   <v>       0.67611800       0.71417000       0.08350500 </v>
   <v>       0.67611800       0.28583000       0.58350500 </v>
   <v>       0.18147400       0.20344500       0.73945400 </v>
   <v>       0.18487600       0.79655500       0.23945400 </v>
   <v>       0.68147400       0.70344500       0.73945400 </v>
   <v>       0.68147400       0.29655500       0.23945400 </v>
   <v>       0.18900300       0.20186000       0.42366300 </v>
   <v>       0.18900300       0.79814000       0.92366300 </v>
   <v>       0.68900300       0.70186000       0.42366300 </v>
   <v>       0.68900300       0.29814000       0.92366300 </v>
   <v>       0.29347700       0.34686800       0.57827500 </v>
   <v>       0.29347700       0.65313200       0.07827500 </v>
   <v>       0.79347700       0.84686800       0.57827500 </v>
   <v>       0.79347700       0.15313200       0.07827500 </v>
   <v>       0.30310600       0.30561100       0.25150600 </v>
   <v>       0.30310600       0.69438900       0.74801900 </v>
   <v>       0.80310600       0.80561100       0.24801900 </v>
   <v>       0.80310600       0.19438900       0.74801900 </v>
   <v>       0.49071400       0.13464800       0.42295500 </v>
   <v>       0.49071400       0.86535200       0.92295500 </v>
   <v>       0.99071400       0.62540500       0.42295500 </v>
   <v>       0.99071400       0.36535200       0.92295500 </v>
  </varray>
 </structure>
 <calculation>
  <scstep>
   <time name="diag">    0.45    0.63</time>
   <time name="diis">    1.24    1.59</time>
   <time name="orth">    0.17    0.21</time>
   <time name="total">    2.28    2.83</time>
   <energy>
    <i name="alphaZ">   1136.56246079 </i>
    <i name="ewald"> -19691.03691130 </i>
    <i name="hartreedc"> -12197.81063332 </i>
    <i name="XCdc">   1336.22055163 </i>
    <i name="pawpsdc">  27518.38149996 </i>
    <i name="pawaedc"> -27812.06485035 </i>
    <i name="eentropy">     -0.04592345 </i>
    <i name="bandstr">   2144.43156564 </i>
    <i name="atom">  32340.34786160 </i>
    <i name="e_fr_energy">   4774.98562120 </i>
    <i name="e_wo_entrp">   4775.03154465 </i>
    <i name="e_0_energy">   4775.00092902 </i>
   </energy>
  </scstep>
  <scstep>
   <time name="diag">    0.32    0.48</time>
   <time name="diis">    1.04    1.41</time>
   <time name="orth">    0.14    0.18</time>
   <time name="total">    1.51    2.08</time>
   <energy>
    <i name="e_fr_energy">   1577.75891481 </i>
    <i name="e_wo_entrp">   1577.83961442 </i>
    <i name="e_0_energy">   1577.78581468 </i>
   </energy>
  </scstep>
  <scstep>
   <time name="diag">    0.44    0.59</time>
   <time name="diis">    1.16    1.53</time>
   <time name="orth">    0.10    0.18</time>
   <time name="total">    1.70    2.30</time>
   <energy>
    <i name="e_fr_energy">    548.08863745 </i>
    <i name="e_wo_entrp">    547.84799483 </i>
    <i name="e_0_energy">    548.00842324 </i>
   </energy>
  </scstep>
  <scstep>
   <time name="diag">    0.43    0.67</time>
   <time name="diis">    1.01    1.58</time>
   <time name="orth">    0.11    0.16</time>
   <time name="total">    1.56    2.41</time>
   <energy>
    <i name="e_fr_energy">    121.94161593 </i>
    <i name="e_wo_entrp">    121.88124336 </i>
    <i name="e_0_energy">    121.92149174 </i>
   </energy>
  </scstep>
  <scstep>
   <time name="diag">    0.44    0.68</time>
   <time name="diis">    1.08    1.54</time>
   <time name="orth">    0.08    0.12</time>
   <time name="total">    1.61    2.34</time>
   <energy>
    <i name="e_fr_energy">   -124.88334869 </i>
    <i name="e_wo_entrp">   -124.81948956 </i>
    <i name="e_0_energy">   -124.86206231 </i>
   </energy>
  </scstep>
  <scstep>
   <time name="diag">    0.35    0.56</time>
   <time name="diis">    1.03    1.53</time>
   <time name="orth">    0.14    0.20</time>
   <time name="total">    1.52    2.29</time>
   <energy>
    <i name="e_fr_energy">   -238.68296548 </i>
    <i name="e_wo_entrp">   -238.67449033 </i>
    <i name="e_0_energy">   -238.68014043 </i>
   </energy>
  </scstep>
  <scstep>
   <time name="diag">    0.47    0.64</time>
   <time name="diis">    1.22    1.67</time>
   <time name="orth">    0.09    0.09</time>
   <time name="total">    1.79    2.40</time>
   <energy>
    <i name="e_fr_energy">   -294.92907461 </i>
    <i name="e_wo_entrp">   -294.96279240 </i>
    <i name="e_0_energy">   -294.94031388 </i>
   </energy>
  </scstep>
  <scstep>
   <time name="diag">    0.35    0.54</time>
   <time name="diis">    1.02    1.44</time>
   <time name="orth">    0.08    0.13</time>
   <time name="total">    1.44    2.11</time>
   <energy>
    <i name="e_fr_energy">   -316.64206804 </i>
    <i name="e_wo_entrp">   -316.69480000 </i>
    <i name="e_0_energy">   -316.65964536 </i>
   </energy>
  </scstep>
  <scstep>
   <time name="diag">    0.41    0.60</time>
   <time name="diis">    3.38    4.77</time>
   <time name="orth">    0.21    0.25</time>
   <time name="total">    4.00    5.62</time>
   <energy>
    <i name="e_fr_energy">   -336.90640112 </i>
    <i name="e_wo_entrp">   -336.96125614 </i>
    <i name="e_0_energy">   -336.92468612 </i>
   </energy>
  </scstep>
  <scstep>
   <time name="diag">    0.30    0.46</time>
   <time name="diis">    3.44    4.83</time>
   <time name="orth">    0.17    0.24</time>
   <time name="total">    3.91    5.54</time>
   <energy>
    <i name="e_fr_energy">   -337.35830659 </i>
    <i name="e_wo_entrp">   -337.39832718 </i>
    <i name="e_0_energy">   -337.37164679 </i>
   </energy>
  </scstep>
  <scstep>
   <time name="diag">    0.46    0.62</time>
   <time name="diis">    3.03    4.46</time>
   <time name="orth">    0.12    0.13</time>
   <time name="total">    3.61    5.23</time>
   <energy>
    <i name="e_fr_energy">   -337.62867131 </i>
    <i name="e_wo_entrp">   -337.66187676 </i>
    <i name="e_0_energy">   -337.63973980 </i>
   </energy>
  </scstep>
  <scstep>
   <time name="diag">    0.49    0.68</time>
   <time name="diis">    2.58    3.72</time>
   <time name="orth">    0.19    0.39</time>
   <time name="total">    3.40    4.96</time>
   <energy>
    <i name="e_fr_energy">   -337.72750495 </i>
    <i name="e_wo_entrp">   -337.75705743 </i>
    <i name="e_0_energy">   -337.73735578 </i>
   </energy>
  </scstep>
  <scstep>
   <time name="diag">    0.46    0.65</time>
   <time name="diis">    2.22    3.40</time>
   <time name="orth">    0.15    0.23</time>
   <time name="total">    3.11    4.71</time>
   <energy>
    <i name="e_fr_energy">   -324.89890219 </i>
    <i name="e_wo_entrp">   -324.73667135 </i>
    <i name="e_0_energy">   -324.84482524 </i>
   </energy>
  </scstep>
  <scstep>
   <time name="diag">    0.35    0.44</time>
   <time name="diis">    2.26    3.31</time>
   <time name="orth">    0.10    0.15</time>
   <time name="total">    3.01    4.37</time>
   <energy>
    <i name="e_fr_energy">   -394.89900471 </i>
    <i name="e_wo_entrp">   -394.61809316 </i>
    <i name="e_0_energy">   -394.80536753 </i>
   </energy>
  </scstep>
  <scstep>
   <time name="diag">    0.30    0.48</time>
   <time name="diis">    2.34    3.42</time>
   <time name="orth">    0.16    0.25</time>
   <time name="total">    3.18    4.71</time>
   <energy>
    <i name="e_fr_energy">   -316.40066054 </i>
    <i name="e_wo_entrp">   -316.34846632 </i>
    <i name="e_0_energy">   -316.38326247 </i>
   </energy>
  </scstep>
  <scstep>
   <time name="diag">    0.41    0.65</time>
   <time name="diis">    2.09    3.17</time>
   <time name="orth">    0.13    0.20</time>
   <time name="total">    3.08    4.57</time>
   <energy>
    <i name="e_fr_energy">   -308.69895013 </i>
    <i name="e_wo_entrp">   -308.56374463 </i>
    <i name="e_0_energy">   -308.65388163 </i>
   </energy>
  </scstep>
  <scstep>
   <time name="diag">    0.40    0.60</time>
   <time name="diis">    2.30    3.10</time>
   <time name="orth">    0.12    0.14</time>
   <time name="total">    3.25    4.42</time>
   <energy>
    <i name="e_fr_energy">   -398.06673119 </i>
    <i name="e_wo_entrp">   -398.11774411 </i>
    <i name="e_0_energy">   -398.08373549 </i>
   </energy>
  </scstep>
  <scstep>
   <time name="diag">    0.51    0.91</time>
   <time name="diis">    2.26    3.25</time>
   <time name="orth">    0.12    0.14</time>
   <time name="total">    3.29    4.86</time>
   <energy>
    <i name="e_fr_energy">   -367.68256158 </i>
    <i name="e_wo_entrp">   -367.51781735 </i>
    <i name="e_0_energy">   -367.62764684 </i>
   </energy>
  </scstep>
  <scstep>
   <time name="diag">    0.41    0.57</time>
   <time name="diis">    2.27    3.23</time>
   <time name="orth">    0.09    0.14</time>
   <time name="total">    3.05    4.38</time>
   <energy>
    <i name="e_fr_energy">   -324.79540135 </i>
    <i name="e_wo_entrp">   -324.84132102 </i>
    <i name="e_0_energy">   -324.81070790 </i>
   </energy>
  </scstep>
  <scstep>
   <time name="diag">    0.37    0.62</time>
   <time name="diis">    2.29    3.10</time>
   <time name="orth">    0.10    0.16</time>
   <time name="total">    3.08    4.27</time>
   <energy>
    <i name="e_fr_energy">   -333.74117842 </i>
    <i name="e_wo_entrp">   -333.79817716 </i>
    <i name="e_0_energy">   -333.76017800 </i>
   </energy>
  </scstep>
  <scstep>
   <time name="diag">    0.48    0.72</time>
   <time name="diis">    2.07    3.08</time>
   <time name="orth">    0.12    0.18</time>
   <time name="total">    3.05    4.46</time>
   <energy>
    <i name="e_fr_energy">   -348.84904609 </i>
    <i name="e_wo_entrp">   -348.78251065 </i>
    <i name="e_0_energy">   -348.82686761 </i>
   </energy>
  </scstep>
  <scstep>
   <time name="diag">    0.36    0.53</time>
   <time name="diis">    2.25    3.23</time>
   <time name="orth">    0.11    0.23</time>
   <time name="total">    3.05    4.40</time>
   <energy>
    <i name="e_fr_energy">   -313.47523600 </i>
    <i name="e_wo_entrp">   -313.31177428 </i>
    <i name="e_0_energy">   -313.42074876 </i>
   </energy>
  </scstep>
  <scstep>
   <time name="diag">    0.31    0.48</time>
   <time name="diis">    2.32    3.01</time>
   <time name="orth">    0.22    0.24</time>
   <time name="total">    3.24    4.35</time>
   <energy>
    <i name="e_fr_energy">   -294.36845976 </i>
    <i name="e_wo_entrp">   -294.35319323 </i>
    <i name="e_0_energy">   -294.36337091 </i>
   </energy>
  </scstep>
  <scstep>
   <time name="diag">    0.39    0.58</time>
   <time name="diis">    2.06    2.89</time>
   <time name="orth">    0.15    0.15</time>
   <time name="total">    2.86    3.99</time>
   <energy>
    <i name="e_fr_energy">   -307.09138546 </i>
    <i name="e_wo_entrp">   -306.97259547 </i>
    <i name="e_0_energy">   -307.05178879 </i>
   </energy>
  </scstep>
  <scstep>
   <time name="diag">    0.39    0.56</time>
   <time name="diis">    2.19    3.17</time>
   <time name="orth">    0.14    0.18</time>
   <time name="total">    3.08    4.37</time>
   <energy>
    <i name="e_fr_energy">   -288.46322002 </i>
    <i name="e_wo_entrp">   -288.45579125 </i>
    <i name="e_0_energy">   -288.46074376 </i>
   </energy>
  </scstep>
  <scstep>
   <time name="diag">    0.46    0.72</time>
   <time name="diis">    2.28    3.02</time>
   <time name="orth">    0.09    0.14</time>
   <time name="total">    3.13    4.30</time>
   <energy>
    <i name="e_fr_energy">   -286.99693529 </i>
    <i name="e_wo_entrp">   -287.01710125 </i>
    <i name="e_0_energy">   -287.00365728 </i>
   </energy>
  </scstep>
  <scstep>
   <time name="diag">    0.35    0.49</time>
   <time name="diis">    2.33    3.25</time>
   <time name="orth">    0.15    0.22</time>
   <time name="total">    3.17    4.41</time>
   <energy>
    <i name="e_fr_energy">   -285.38384079 </i>
    <i name="e_wo_entrp">   -285.43046522 </i>
    <i name="e_0_energy">   -285.39938227 </i>
   </energy>
  </scstep>
  <scstep>
   <time name="diag">    0.34    0.51</time>
   <time name="diis">    2.06    3.12</time>
   <time name="orth">    0.07    0.16</time>
   <time name="total">    2.71    4.12</time>
   <energy>
    <i name="e_fr_energy">   -280.94035915 </i>
    <i name="e_wo_entrp">   -280.89710732 </i>
    <i name="e_0_energy">   -280.92594187 </i>
   </energy>
  </scstep>
  <scstep>
   <time name="diag">    0.54    0.87</time>
   <time name="diis">    2.18    3.10</time>
   <time name="orth">    0.12    0.15</time>
   <time name="total">    3.09    4.56</time>
   <energy>
    <i name="e_fr_energy">   -279.19149990 </i>
    <i name="e_wo_entrp">   -279.09825001 </i>
    <i name="e_0_energy">   -279.16041660 </i>
   </energy>
  </scstep>
  <scstep>
   <time name="diag">    0.30    0.50</time>
   <time name="diis">    2.03    2.91</time>
   <time name="orth">    0.10    0.16</time>
   <time name="total">    2.76    4.04</time>
   <energy>
    <i name="e_fr_energy">   -278.62767348 </i>
    <i name="e_wo_entrp">   -278.57077833 </i>
    <i name="e_0_energy">   -278.60870843 </i>
   </energy>
  </scstep>
  <scstep>
   <time name="diag">    0.34    0.56</time>
   <time name="diis">    2.14    3.10</time>
   <time name="orth">    0.26    0.37</time>
   <time name="total">    3.13    4.49</time>
   <energy>
    <i name="e_fr_energy">   -279.09719019 </i>
    <i name="e_wo_entrp">   -279.05727402 </i>
    <i name="e_0_energy">   -279.08388480 </i>
   </energy>
  </scstep>
  <scstep>
   <time name="diag">    0.29    0.46</time>
   <time name="diis">    2.12    2.95</time>
   <time name="orth">    0.09    0.16</time>
   <time name="total">    2.83    4.03</time>
   <energy>
    <i name="e_fr_energy">   -277.98796579 </i>
    <i name="e_wo_entrp">   -277.92225439 </i>
    <i name="e_0_energy">   -277.96606199 </i>
   </energy>
  </scstep>
  <scstep>
   <time name="diag">    0.41    0.55</time>
   <time name="diis">    2.05    2.95</time>
   <time name="orth">    0.12    0.15</time>
   <time name="total">    2.94    4.13</time>
   <energy>
    <i name="e_fr_energy">   -277.67858055 </i>
    <i name="e_wo_entrp">   -277.57585396 </i>
    <i name="e_0_energy">   -277.64433836 </i>
   </energy>
  </scstep>
  <scstep>
   <time name="diag">    0.29    0.41</time>
   <time name="diis">    2.36    3.10</time>
   <time name="orth">    0.14    0.15</time>
   <time name="total">    3.17    4.11</time>
   <energy>
    <i name="e_fr_energy">   -277.54607637 </i>
    <i name="e_wo_entrp">   -277.46743301 </i>
    <i name="e_0_energy">   -277.51986192 </i>
   </energy>
  </scstep>
  <scstep>
   <time name="diag">    0.41    0.59</time>
   <time name="diis">    1.81    2.77</time>
   <time name="orth">    0.15    0.16</time>
   <time name="total">    2.65    3.85</time>
   <energy>
    <i name="e_fr_energy">   -277.49515509 </i>
    <i name="e_wo_entrp">   -277.39729446 </i>
    <i name="e_0_energy">   -277.46253488 </i>
   </energy>
  </scstep>
  <scstep>
   <time name="diag">    0.48    0.64</time>
   <time name="diis">    1.90    2.78</time>
   <time name="orth">    0.13    0.20</time>
   <time name="total">    2.94    4.25</time>
   <energy>
    <i name="e_fr_energy">   -277.61447562 </i>
    <i name="e_wo_entrp">   -277.52487254 </i>
    <i name="e_0_energy">   -277.58460793 </i>
   </energy>
  </scstep>
  <scstep>
   <time name="diag">    0.52    0.90</time>
   <time name="diis">    2.06    3.10</time>
   <time name="orth">    0.18    0.25</time>
   <time name="total">    3.09    4.71</time>
   <energy>
    <i name="e_fr_energy">   -277.66475345 </i>
    <i name="e_wo_entrp">   -277.60644082 </i>
    <i name="e_0_energy">   -277.64531591 </i>
   </energy>
  </scstep>
  <scstep>
   <time name="diag">    0.38    0.57</time>
   <time name="diis">    2.01    2.86</time>
   <time name="orth">    0.18    0.24</time>
   <time name="total">    2.90    4.28</time>
   <energy>
    <i name="e_fr_energy">   -277.57679614 </i>
    <i name="e_wo_entrp">   -277.49045595 </i>
    <i name="e_0_energy">   -277.54801608 </i>
   </energy>
  </scstep>
  <scstep>
   <time name="diag">    0.37    0.61</time>
   <time name="diis">    2.26    3.09</time>
   <time name="orth">    0.15    0.23</time>
   <time name="total">    3.17    4.45</time>
   <energy>
    <i name="e_fr_energy">   -277.57393034 </i>
    <i name="e_wo_entrp">   -277.56065007 </i>
    <i name="e_0_energy">   -277.56950358 </i>
   </energy>
  </scstep>
  <scstep>
   <time name="diag">    0.36    0.47</time>
   <time name="diis">    2.34    3.17</time>
   <time name="orth">    0.14    0.20</time>
   <time name="total">    3.26    4.42</time>
   <energy>
    <i name="e_fr_energy">   -277.24962005 </i>
    <i name="e_wo_entrp">   -277.29476533 </i>
    <i name="e_0_energy">   -277.26466848 </i>
   </energy>
  </scstep>
  <scstep>
   <time name="diag">    0.44    0.54</time>
   <time name="diis">    2.15    3.13</time>
   <time name="orth">    0.13    0.24</time>
   <time name="total">    3.15    4.58</time>
   <energy>
    <i name="e_fr_energy">   -277.19815809 </i>
    <i name="e_wo_entrp">   -277.24056906 </i>
    <i name="e_0_energy">   -277.21229508 </i>
   </energy>
  </scstep>
  <scstep>
   <time name="diag">    0.35    0.51</time>
   <time name="diis">    2.46    3.44</time>
   <time name="orth">    0.08    0.17</time>
   <time name="total">    3.16    4.55</time>
   <energy>
    <i name="e_fr_energy">   -276.99826331 </i>
    <i name="e_wo_entrp">   -277.07967073 </i>
    <i name="e_0_energy">   -277.02539911 </i>
   </energy>
  </scstep>
  <scstep>
   <time name="diag">    0.57    0.80</time>
   <time name="diis">    2.42    3.50</time>
   <time name="orth">    0.12    0.18</time>
   <time name="total">    3.53    5.07</time>
   <energy>
    <i name="e_fr_energy">   -276.97646661 </i>
    <i name="e_wo_entrp">   -277.03167665 </i>
    <i name="e_0_energy">   -276.99486996 </i>
   </energy>
  </scstep>
  <scstep>
   <time name="diag">    0.35    0.57</time>
   <time name="diis">    2.05    2.91</time>
   <time name="orth">    0.12    0.14</time>
   <time name="total">    2.81    4.03</time>
   <energy>
    <i name="e_fr_energy">   -276.95297387 </i>
    <i name="e_wo_entrp">   -277.02402835 </i>
    <i name="e_0_energy">   -276.97665870 </i>
   </energy>
  </scstep>
  <scstep>
   <time name="diag">    0.59    0.80</time>
   <time name="diis">    1.95    2.99</time>
   <time name="orth">    0.12    0.23</time>
   <time name="total">    3.02    4.51</time>
   <energy>
    <i name="e_fr_energy">   -276.96865736 </i>
    <i name="e_wo_entrp">   -277.03415366 </i>
    <i name="e_0_energy">   -276.99048946 </i>
   </energy>
  </scstep>
  <scstep>
   <time name="diag">    0.48    0.66</time>
   <time name="diis">    1.97    2.87</time>
   <time name="orth">    0.14    0.18</time>
   <time name="total">    3.06    4.24</time>
   <energy>
    <i name="e_fr_energy">   -276.96983322 </i>
    <i name="e_wo_entrp">   -277.03851669 </i>
    <i name="e_0_energy">   -276.99272771 </i>
   </energy>
  </scstep>
  <scstep>
   <time name="diag">    0.46    0.65</time>
   <time name="diis">    2.19    3.10</time>
   <time name="orth">    0.20    0.23</time>
   <time name="total">    3.25    4.61</time>
   <energy>
    <i name="e_fr_energy">   -276.97211463 </i>
    <i name="e_wo_entrp">   -277.03374604 </i>
    <i name="e_0_energy">   -276.99265843 </i>
   </energy>
  </scstep>
  <scstep>
   <time name="diag">    0.71    0.95</time>
   <time name="diis">    1.94    2.61</time>
   <time name="orth">    0.08    0.15</time>
   <time name="total">    3.02    4.12</time>
   <energy>
    <i name="e_fr_energy">   -276.97292720 </i>
    <i name="e_wo_entrp">   -277.03276288 </i>
    <i name="e_0_energy">   -276.99287243 </i>
   </energy>
  </scstep>
  <scstep>
   <time name="diag">    0.45    0.63</time>
   <time name="diis">    2.10    2.73</time>
   <time name="orth">    0.13    0.16</time>
   <time name="total">    2.95    3.92</time>
   <energy>
    <i name="e_fr_energy">   -276.97242709 </i>
    <i name="e_wo_entrp">   -277.03315382 </i>
    <i name="e_0_energy">   -276.99266933 </i>
   </energy>
  </scstep>
  <scstep>
   <time name="diag">    0.49    0.64</time>
   <time name="diis">    1.47    2.02</time>
   <time name="orth">    0.14    0.15</time>
   <time name="total">    2.52    3.40</time>
   <energy>
    <i name="e_fr_energy">   -276.97139308 </i>
    <i name="e_wo_entrp">   -277.03075326 </i>
    <i name="e_0_energy">   -276.99117981 </i>
   </energy>
  </scstep>
  <scstep>
   <time name="diag">    0.40    0.63</time>
   <time name="diis">    1.11    1.47</time>
   <time name="orth">    0.15    0.16</time>
   <time name="total">    2.03    2.87</time>
   <energy>
    <i name="e_fr_energy">   -276.97108446 </i>
    <i name="e_wo_entrp">   -277.02990141 </i>
    <i name="e_0_energy">   -276.99069011 </i>
   </energy>
  </scstep>
  <scstep>
   <time name="diag">    0.41    0.57</time>
   <time name="diis">    1.13    1.63</time>
   <time name="orth">    0.18    0.31</time>
   <time name="total">    2.01    2.98</time>
   <energy>
    <i name="e_fr_energy">   -276.97086477 </i>
    <i name="e_wo_entrp">   -277.02952238 </i>
    <i name="e_0_energy">   -276.99041731 </i>
   </energy>
  </scstep>
  <scstep>
   <time name="diag">    0.66    0.97</time>
   <time name="diis">    1.07    1.65</time>
   <time name="orth">    0.15    0.19</time>
   <time name="total">    2.11    3.12</time>
   <energy>
    <i name="alphaZ">   1136.56246079 </i>
    <i name="ewald"> -19691.03691130 </i>
    <i name="hartreedc"> -12346.34043433 </i>
    <i name="XCdc">   1356.53898200 </i>
    <i name="pawpsdc">  32580.88675284 </i>
    <i name="pawaedc"> -32885.37516795 </i>
    <i name="eentropy">      0.05868527 </i>
    <i name="bandstr">  -2768.61309007 </i>
    <i name="atom">  32340.34786160 </i>
    <i name="e_fr_energy">   -276.97086115 </i>
    <i name="e_wo_entrp">   -277.02954642 </i>
    <i name="e_0_energy">   -276.99042291 </i>
   </energy>
  </scstep>
  <structure>
   <crystal>
    <varray name="basis" >
     <v>       9.40119100       0.00000000      -0.00865400 </v>
     <v>       0.00000000       5.35946700       0.00000000 </v>
     <v>       0.00000000       0.00000000      14.95565100 </v>
    </varray>
    <i name="volume">    753.54605297 </i>
    <varray name="rec_basis" >
     <v>       0.10636950       0.00000000       0.00000000 </v>
     <v>       0.00000000       0.18658572       0.00000000 </v>
     <v>       0.00006155       0.00000000       0.06686436 </v>
    </varray>
   </crystal>
   <varray name="positions" >
    <v>       0.16411200       0.48397600       0.17995900 </v>
    <v>       0.16411200       0.51326900       0.67995900 </v>
    <v>       0.66411200       0.98397600       0.17995900 </v>
    <v>       0.66411200       0.01602400       0.67995900 </v>
    <v>       0.17533200       0.47285200       0.97303200 </v>
    <v>       0.17533200       0.52714800       0.47303200 </v>
    <v>       0.67533200       0.97285200       0.97303200 </v>
    <v>       0.67533200       0.02714800       0.47303200 </v>
    <v>       0.33162900       0.02941400       0.82240100 </v>
    <v>       0.33162900       0.97058600       0.32240100 </v>
    <v>       0.83162900       0.52941400       0.82240100 </v>
    <v>       0.83162900       0.47886600       0.32240100 </v>
    <v>       0.33361900       0.00432000       0.51711500 </v>
    <v>       0.33361900       0.99568000       0.01711500 </v>
    <v>       0.83361900       0.50432000       0.51711500 </v>
    <v>       0.83361900       0.49568000       0.01711500 </v>
    <v>       0.30926400       0.27210900       0.92544800 </v>
    <v>       0.30926400       0.73259200       0.42544800 </v>
    <v>       0.80926400       0.76740800       0.92544800 </v>
    <v>       0.80926400       0.23259200       0.42692400 </v>
    <v>       0.00386100       0.36884200       0.24394900 </v>
    <v>       0.00386100       0.63115800       0.74394900 </v>
    <v>       0.50386100       0.86884200       0.23610300 </v>
    <v>       0.50386100       0.13115800       0.74394900 </v>
    <v>       0.02591400       0.39537700       0.57915900 </v>
    <v>       0.02591400       0.60462300       0.07915900 </v>
    <v>       0.52591400       0.89537700       0.57915900 </v>
    <v>       0.52591400       0.10462300       0.07485400 </v>
    <v>       0.17611800       0.21417000       0.08350500 </v>
    <v>       0.17611800       0.78583000       0.58350500 </v>
    <v>       0.67611800       0.71417000       0.08350500 </v>
    <v>       0.67611800       0.28583000       0.58350500 </v>
    <v>       0.18147400       0.20344500       0.73945400 </v>
    <v>       0.18487600       0.79655500       0.23945400 </v>
    <v>       0.68147400       0.70344500       0.73945400 </v>
    <v>       0.68147400       0.29655500       0.23945400 </v>
    <v>       0.18900300       0.20186000       0.42366300 </v>
    <v>       0.18900300       0.79814000       0.92366300 </v>
    <v>       0.68900300       0.70186000       0.42366300 </v>
    <v>       0.68900300       0.29814000       0.92366300 </v>
    <v>       0.29347700       0.34686800       0.57827500 </v>
    <v>       0.29347700       0.65313200       0.07827500 </v>
    <v>       0.79347700       0.84686800       0.57827500 </v>
    <v>       0.79347700       0.15313200       0.07827500 </v>
    <v>       0.30310600       0.30561100       0.25150600 </v>
    <v>       0.30310600       0.69438900       0.74801900 </v>
    <v>       0.80310600       0.80561100       0.24801900 </v>
    <v>       0.80310600       0.19438900       0.74801900 </v>
    <v>       0.49071400       0.13464800       0.42295500 </v>
    <v>       0.49071400       0.86535200       0.92295500 </v>
    <v>       0.99071400       0.62540500       0.42295500 </v>
    <v>       0.99071400       0.36535200       0.92295500 </v>
   </varray>
  </structure>
  <varray name="forces" >
   <v>       0.30295932       0.11893682      -0.26380941 </v>
   <v>       0.18864459       0.00912570      -0.40638033 </v>
   <v>       0.60700734       0.36234330      -0.70363076 </v>
   <v>       0.16362878      -0.18134654      -0.43867168 </v>
   <v>       0.16354652      -0.64156032       1.22893782 </v>
   <v>       0.40782083       0.64559744       1.28298902 </v>
   <v>       0.22376090      -0.70460131       1.29877557 </v>
   <v>       0.29306537       0.80127416       1.37295676 </v>
   <v>      -0.46896809       1.03685285      -0.01448435 </v>
   <v>      -0.55783875      -1.00776350      -0.02839143 </v>
   <v>      -0.49456222       1.04747649      -0.02344502 </v>
   <v>      -0.43988481      -1.14168939      -0.08692369 </v>
   <v>       0.21815969      -1.22722861      -1.33077534 </v>
   <v>       0.30573464       1.26104054      -1.44767768 </v>
   <v>       0.25263290      -1.40452332      -1.32409297 </v>
   <v>       0.26772276       1.23172900      -1.37785864 </v>
   <v>      -0.23717913      -1.89635512       0.10327989 </v>
   <v>      -0.30086287       1.74593452       0.07810641 </v>
   <v>      -0.31518840      -1.75075047       0.11802135 </v>
   <v>      -0.30348377       1.72397075       0.13653504 </v>
   <v>      -0.37197072       0.25021835       0.36901083 </v>
   <v>      -0.35780174      -0.23349296       0.36605946 </v>
   <v>      -0.68628863       0.04968668       0.77120404 </v>
   <v>      -0.37907864      -0.20840254       0.38123428 </v>
   <v>      -0.64272516       0.23005992      -0.36907000 </v>
   <v>      -0.63487965      -0.25322801      -0.39427989 </v>
   <v>      -0.64741362       0.24077466      -0.38494466 </v>
   <v>      -0.65305053      -0.22011288      -0.32334141 </v>
   <v>       0.23787300      -0.35638180      -0.35039235 </v>
   <v>       0.19628027       0.31526789      -0.41617506 </v>
   <v>       0.21740023      -0.33912999      -0.41078180 </v>
   <v>       0.16896783       0.31477651      -0.38807801 </v>
   <v>       0.68841872       0.02917115       0.67569550 </v>
   <v>       0.60026642      -0.07376766       0.62844822 </v>
   <v>       0.70657323       0.10665855       0.65310403 </v>
   <v>       0.63351013      -0.09635170       0.62209168 </v>
   <v>       0.52883047      -0.25796189       0.11271907 </v>
   <v>       0.50929750       0.29469432       0.05795282 </v>
   <v>       0.52960161      -0.29828179      -0.02383746 </v>
   <v>       0.53361446       0.27795581       0.04204387 </v>
   <v>       0.19654137       0.13721460      -0.33866861 </v>
   <v>       0.20989160      -0.13358815      -0.35797712 </v>
   <v>       0.20527274       0.14534945      -0.37962416 </v>
   <v>       0.21375858      -0.11677216      -0.36315204 </v>
   <v>      -0.32483559      -0.17083725       0.09713314 </v>
   <v>      -0.26648344       0.13123264       0.24258157 </v>
   <v>      -0.23386414      -0.16917511       0.29767039 </v>
   <v>      -0.22622956       0.17392391       0.27408294 </v>
   <v>      -0.27516296      -0.46740822       0.19352536 </v>
   <v>      -0.30802907       0.42811377       0.16106239 </v>
   <v>      -0.37215025      -0.21523423       0.13601934 </v>
   <v>      -0.27285008       0.45656514       0.24522309 </v>
  </varray>
  <varray name="stress" >
   <v>    -205.36900158       0.24588673      -2.90668308 </v>
   <v>       0.24588604    -211.91463155      -1.01587221 </v>
   <v>      -2.90668304      -1.01587157    -235.74235165 </v>
  </varray>
  <energy>
   <i name="e_fr_energy">   -276.97086115 </i>
   <i name="e_wo_entrp">   -276.99042291 </i>
   <i name="e_0_energy">      0.05868527 </i>
  </energy>
  <time name="totalsc">  157.40  224.14</time>
  <eigenvalues>
   <array>
    <dimension dim="1">band</dimension>
    <dimension dim="2">kpoint</dimension>
    <dimension dim="3">spin</dimension>
    <field>eigene</field>
    <field>occ</field>
    <set>
     <set comment="spin 1">
      <set comment="kpoint 1">
       <r>  -23.8865    1.0000 </r>
       <r>  -23.8438    1.0000 </r>
       <r>  -23.7632    1.0000 </r>
       <r>  -23.7384    1.0000 </r>
       <r>  -23.7089    1.0000 </r>
       <r>  -23.6630    1.0000 </r>
       <r>  -23.6223    1.0000 </r>
       <r>  -23.5990    1.0000 </r>
       <r>  -23.5789    1.0000 </r>
       <r>  -23.5352    1.0000 </r>
       <r>  -23.5111    1.0000 </r>
       <r>  -23.5108    1.0000 </r>
       <r>  -23.2773    1.0000 </r>
       <r>  -23.2577    1.0000 </r>
       <r>  -23.2540    1.0000 </r>
       <r>  -23.2471    1.0000 </r>
       <r>  -23.1980    1.0000 </r>
       <r>  -23.1437    1.0000 </r>
       <r>  -23.1354    1.0000 </r>
       <r>  -23.1317    1.0000 </r>
       <r>  -23.0925    1.0000 </r>
       <r>  -23.0851    1.0000 </r>
       <r>  -23.0765    1.0000 </r>
       <r>  -23.0641    1.0000 </r>
       <r>  -23.0231    1.0000 </r>
       <r>  -23.0139    1.0000 </r>
       <r>  -22.9637    1.0000 </r>
       <r>  -22.9575    1.0000 </r>
       <r>  -22.8666    1.0000 </r>
       <r>  -22.7517    1.0000 </r>
       <r>  -22.7155    1.0000 </r>
       <r>  -22.7089    1.0000 </r>
       <r>  -18.7203    1.0000 </r>
       <r>  -18.7128    1.0000 </r>
       <r>  -18.6966    1.0000 </r>
       <r>  -18.6785    1.0000 </r>
       <r>   -6.9950    1.0000 </r>
       <r>   -6.9627    1.0000 </r>
       <r>   -6.8885    1.0000 </r>
       <r>   -6.7964    1.0000 </r>
       <r>   -6.7742    1.0000 </r>
       <r>   -6.7651    1.0000 </r>
       <r>   -6.7387    1.0000 </r>
       <r>   -6.7206    1.0000 </r>
       <r>   -6.4898    1.0000 </r>
       <r>   -6.4284    1.0000 </r>
       <r>   -6.3353    1.0000 </r>
       <r>   -6.2334    1.0000 </r>
       <r>   -6.2282    1.0000 </r>
       <r>   -6.1960    1.0000 </r>
       <r>   -6.1484    1.0000 </r>
       <r>   -6.1381    1.0000 </r>
       <r>   -6.1212    1.0000 </r>
       <r>   -6.0965    1.0000 </r>
       <r>   -6.0806    1.0000 </r>
       <r>   -6.0612    1.0000 </r>
       <r>   -6.0480    1.0000 </r>
       <r>   -5.9857    1.0000 </r>
       <r>   -5.9781    1.0000 </r>
       <r>   -5.9464    1.0000 </r>
       <r>   -5.9271    1.0000 </r>
       <r>   -5.9250    1.0000 </r>
       <r>   -5.9088    1.0000 </r>
       <r>   -5.8882    1.0000 </r>
       <r>   -5.8366    1.0000 </r>
       <r>   -5.8273    1.0000 </r>
       <r>   -5.7978    1.0000 </r>
       <r>   -5.7601    1.0000 </r>
       <r>   -5.7359    1.0000 </r>
       <r>   -5.7057    1.0000 </r>
       <r>   -5.6617    1.0000 </r>
       <r>   -5.6582    1.0000 </r>
       <r>   -5.6420    1.0000 </r>
       <r>   -5.6210    1.0000 </r>
       <r>   -5.6036    1.0000 </r>
       <r>   -5.5616    1.0000 </r>
       <r>   -5.5497    1.0000 </r>
       <r>   -5.5389    1.0000 </r>
       <r>   -5.4987    1.0000 </r>
       <r>   -5.4621    1.0000 </r>
       <r>   -5.4468    1.0000 </r>
       <r>   -5.4324    1.0000 </r>
       <r>   -5.2598    1.0000 </r>
       <r>   -5.2314    1.0000 </r>
       <r>   -5.1877    1.0000 </r>
       <r>   -5.1692    1.0000 </r>
       <r>   -5.1123    1.0000 </r>
       <r>   -5.0614    1.0000 </r>
       <r>   -5.0495    1.0000 </r>
       <r>   -5.0106    1.0000 </r>
       <r>   -4.9958    1.0000 </r>
       <r>   -4.9782    1.0000 </r>
       <r>   -4.8881    1.0000 </r>
       <r>   -4.8328    1.0000 </r>
       <r>   -4.7965    1.0000 </r>
       <r>   -4.7875    1.0000 </r>
       <r>   -4.7279    1.0000 </r>
       <r>   -4.6865    1.0000 </r>
       <r>   -4.6734    1.0000 </r>
       <r>   -4.6359    1.0000 </r>
       <r>   -4.6178    1.0000 </r>
       <r>   -4.5828    1.0000 </r>
       <r>   -4.5676    1.0000 </r>
       <r>   -4.5482    1.0000 </r>
       <r>   -4.5354    1.0000 </r>
       <r>   -4.5156    1.0000 </r>
       <r>   -4.4966    1.0000 </r>
       <r>   -4.4626    1.0000 </r>
       <r>   -4.4409    1.0000 </r>
       <r>   -4.4053    1.0000 </r>
       <r>   -4.3864    1.0000 </r>
       <r>   -4.3431    1.0000 </r>
       <r>   -4.3389    1.0000 </r>
       <r>   -4.3055    1.0000 </r>
       <r>   -4.2305    1.0000 </r>
       <r>   -4.1661    1.0000 </r>
       <r>   -4.1321    1.0000 </r>
       <r>   -4.1128    1.0000 </r>
       <r>   -4.0907    1.0000 </r>
       <r>   -4.0733    1.0000 </r>
       <r>   -4.0428    1.0000 </r>
       <r>   -4.0372    1.0000 </r>
       <r>   -4.0217    1.0000 </r>
       <r>   -3.9737    1.0000 </r>
       <r>   -3.9402    1.0000 </r>
       <r>   -3.9321    1.0000 </r>
       <r>   -3.8566    1.0000 </r>
       <r>   -3.8518    1.0000 </r>
       <r>   -3.8415    1.0000 </r>
       <r>   -3.8128    1.0000 </r>
       <r>   -3.7961    1.0000 </r>
       <r>   -3.7899    1.0000 </r>
       <r>   -3.7763    1.0000 </r>
       <r>   -3.7379    1.0000 </r>
       <r>   -3.7132    1.0000 </r>
       <r>   -3.6663    1.0000 </r>
       <r>   -3.6495    1.0000 </r>
       <r>   -3.5875    1.0000 </r>
       <r>   -3.5428    1.0000 </r>
       <r>   -3.5176    1.0000 </r>
       <r>   -3.5114    1.0000 </r>
       <r>   -3.4612    1.0000 </r>
       <r>   -3.4318    1.0000 </r>
       <r>   -3.4052    1.0000 </r>
       <r>   -0.8260    1.0000 </r>
       <r>   -0.8233    1.0000 </r>
       <r>   -0.7986    1.0000 </r>
       <r>   -0.7589    1.0000 </r>
       <r>   -0.7381    1.0000 </r>
       <r>   -0.7337    1.0000 </r>
       <r>   -0.6886    1.0002 </r>
       <r>   -0.6724    1.0002 </r>
       <r>   -0.6588    1.0003 </r>
       <r>   -0.6383    1.0006 </r>
       <r>   -0.6242    1.0008 </r>
       <r>   -0.6163    1.0010 </r>
       <r>   -0.6089    1.0011 </r>
       <r>   -0.5811    1.0021 </r>
       <r>   -0.5786    1.0022 </r>
       <r>   -0.5503    1.0038 </r>
       <r>   -0.5267    1.0059 </r>
       <r>   -0.4761    1.0129 </r>
       <r>   -0.4657    1.0149 </r>
       <r>   -0.4591    1.0162 </r>
       <r>   -0.4409    1.0201 </r>
       <r>   -0.4303    1.0226 </r>
       <r>   -0.4250    1.0238 </r>
       <r>   -0.4094    1.0274 </r>
       <r>   -0.4056    1.0282 </r>
       <r>   -0.3944    1.0306 </r>
       <r>   -0.3836    1.0326 </r>
       <r>   -0.3753    1.0338 </r>
       <r>   -0.3646    1.0350 </r>
       <r>   -0.3586    1.0353 </r>
       <r>   -0.3517    1.0355 </r>
       <r>   -0.3357    1.0342 </r>
       <r>   -0.3130    1.0275 </r>
       <r>   -0.2911    1.0139 </r>
       <r>   -0.2700    0.9925 </r>
       <r>   -0.2477    0.9592 </r>
       <r>   -0.2330    0.9306 </r>
       <r>   -0.2055    0.8628 </r>
       <r>   -0.1921    0.8229 </r>
       <r>   -0.1887    0.8122 </r>
       <r>   -0.1818    0.7896 </r>
       <r>   -0.1697    0.7473 </r>
       <r>   -0.1599    0.7111 </r>
       <r>   -0.1322    0.6010 </r>
       <r>   -0.0967    0.4518 </r>
       <r>   -0.0821    0.3908 </r>
       <r>   -0.0677    0.3329 </r>
       <r>   -0.0204    0.1654 </r>
       <r>   -0.0041    0.1191 </r>
       <r>    0.0337    0.0371 </r>
       <r>    0.0490    0.0138 </r>
       <r>    0.0626   -0.0025 </r>
       <r>    0.0999   -0.0288 </r>
       <r>    0.1223   -0.0346 </r>
       <r>    0.1540   -0.0345 </r>
       <r>    0.1766   -0.0309 </r>
       <r>    0.2062   -0.0244 </r>
       <r>    0.2226   -0.0206 </r>
       <r>    0.2341   -0.0181 </r>
       <r>    0.3066   -0.0063 </r>
       <r>    0.3800   -0.0015 </r>
       <r>    0.4174   -0.0006 </r>
       <r>    0.4825   -0.0001 </r>
       <r>    0.5102   -0.0001 </r>
       <r>    0.5410   -0.0000 </r>
       <r>    0.6981   -0.0000 </r>
       <r>    0.7028   -0.0000 </r>
       <r>    0.7525   -0.0000 </r>
       <r>    0.7634   -0.0000 </r>
       <r>    0.7831   -0.0000 </r>
       <r>    0.8724   -0.0000 </r>
       <r>    0.9858   -0.0000 </r>
       <r>    1.0124   -0.0000 </r>
       <r>    1.0193   -0.0000 </r>
       <r>    1.0835   -0.0000 </r>
       <r>    1.1107   -0.0000 </r>
       <r>    1.1521   -0.0000 </r>
       <r>    1.1582   -0.0000 </r>
       <r>    1.2410   -0.0000 </r>
       <r>    1.2764   -0.0000 </r>
       <r>    3.3566   -0.0000 </r>
       <r>    4.2012   -0.0000 </r>
       <r>    4.6407   -0.0000 </r>
       <r>    5.2496    0.0000 </r>
      </set>
     </set>
    </set>
   </array>
  </eigenvalues>
  <separator name="orbital magnetization" >
   <v name="MAGDIPOLOUT">      0.00000000      0.00000000      0.00000000</v>
  </separator>
  <dos>
   <i name="efermi">     -0.10810303 </i>
   <total>
    <array>
     <dimension dim="1">gridpoints</dimension>
     <dimension dim="2">spin</dimension>
     <field>energy</field>
     <field>total</field>
     <field>integrated</field>
     <set>
      <set comment="spin 1">
       <r>   -25.8865     0.0000     0.0000 </r>
       <r>   -25.7761     0.0000     0.0000 </r>
       <r>   -25.6656     0.0000     0.0000 </r>
       <r>   -25.5552    -0.0000    -0.0000 </r>
       <r>   -25.4447    -0.0000    -0.0000 </r>
       <r>   -25.3343    -0.0000    -0.0000 </r>
       <r>   -25.2238    -0.0000    -0.0000 </r>
       <r>   -25.1134    -0.0000    -0.0000 </r>
       <r>   -25.0029    -0.0000    -0.0000 </r>
       <r>   -24.8925    -0.0000    -0.0000 </r>
       <r>   -24.7820    -0.0000    -0.0000 </r>
       <r>   -24.6716    -0.0000    -0.0000 </r>
       <r>   -24.5611    -0.0002    -0.0000 </r>
       <r>   -24.4506    -0.0058    -0.0007 </r>
       <r>   -24.3402    -0.0778    -0.0093 </r>
       <r>   -24.2297    -0.5081    -0.0654 </r>
       <r>   -24.1193    -1.3221    -0.2114 </r>
       <r>   -24.0088     0.8101    -0.1219 </r>
       <r>   -23.8984    12.2684     1.2332 </r>
       <r>   -23.7879    32.3251     4.8036 </r>
       <r>   -23.6775    52.2688    10.5769 </r>
       <r>   -23.5670    59.7355    17.1749 </r>
       <r>   -23.4566    44.0049    22.0354 </r>
       <r>   -23.3461    28.3422    25.1659 </r>
       <r>   -23.2357    47.3786    30.3990 </r>
       <r>   -23.1252    81.1945    39.3672 </r>
       <r>   -23.0147    87.0795    48.9855 </r>
       <r>   -22.9043    60.0842    55.6220 </r>
       <r>   -22.7938    34.8961    59.4764 </r>
       <r>   -22.6834    26.0236    62.3508 </r>
       <r>   -22.5729    14.7114    63.9758 </r>
       <r>   -22.4625     2.2370    64.2228 </r>
       <r>   -22.3520    -1.3321    64.0757 </r>
       <r>   -22.2416    -0.5889    64.0107 </r>
       <r>   -22.1311    -0.0898    64.0007 </r>
       <r>   -22.0207    -0.0064    64.0000 </r>
       <r>   -21.9102    -0.0002    64.0000 </r>
       <r>   -21.7998    -0.0000    64.0000 </r>
       <r>   -21.6893    -0.0000    64.0000 </r>
       <r>   -21.5788    -0.0000    64.0000 </r>
       <r>   -21.4684    -0.0000    64.0000 </r>
       <r>   -21.3579     0.0000    64.0000 </r>
       <r>   -21.2475     0.0000    64.0000 </r>
       <r>   -21.1370     0.0000    64.0000 </r>
       <r>   -21.0266     0.0000    64.0000 </r>
       <r>   -20.9161     0.0000    64.0000 </r>
       <r>   -20.8057     0.0000    64.0000 </r>
       <r>   -20.6952     0.0000    64.0000 </r>
       <r>   -20.5848     0.0000    64.0000 </r>
       <r>   -20.4743     0.0000    64.0000 </r>
       <r>   -20.3639    -0.0000    64.0000 </r>
       <r>   -20.2534    -0.0000    64.0000 </r>
       <r>   -20.1429    -0.0000    64.0000 </r>
       <r>   -20.0325    -0.0000    64.0000 </r>
       <r>   -19.9220    -0.0000    64.0000 </r>
       <r>   -19.8116    -0.0000    64.0000 </r>
       <r>   -19.7011    -0.0000    64.0000 </r>
       <r>   -19.5907    -0.0000    64.0000 </r>
       <r>   -19.4802    -0.0000    64.0000 </r>
       <r>   -19.3698    -0.0010    63.9999 </r>
       <r>   -19.2593    -0.0218    63.9975 </r>
       <r>   -19.1489    -0.2400    63.9710 </r>
       <r>   -19.0384    -1.1473    63.8443 </r>
       <r>   -18.9280    -0.9444    63.7399 </r>
       <r>   -18.8175     9.1398    64.7495 </r>
       <r>   -18.7071    27.9178    67.8331 </r>
       <r>   -18.5966    29.1417    71.0519 </r>
       <r>   -18.4861    10.7457    72.2388 </r>
       <r>   -18.3757    -0.5936    72.1732 </r>
       <r>   -18.2652    -1.2515    72.0350 </r>
       <r>   -18.1548    -0.2874    72.0033 </r>
       <r>   -18.0443    -0.0281    72.0002 </r>
       <r>   -17.9339    -0.0014    72.0000 </r>
       <r>   -17.8234    -0.0000    72.0000 </r>
       <r>   -17.7130    -0.0000    72.0000 </r>
       <r>   -17.6025    -0.0000    72.0000 </r>
       <r>   -17.4921    -0.0000    72.0000 </r>
       <r>   -17.3816    -0.0000    72.0000 </r>
       <r>   -17.2712     0.0000    72.0000 </r>
       <r>   -17.1607     0.0000    72.0000 </r>
       <r>   -17.0502     0.0000    72.0000 </r>
       <r>   -16.9398     0.0000    72.0000 </r>
       <r>   -16.8293     0.0000    72.0000 </r>
       <r>   -16.7189     0.0000    72.0000 </r>
       <r>   -16.6084     0.0000    72.0000 </r>
       <r>   -16.4980     0.0000    72.0000 </r>
       <r>   -16.3875     0.0000    72.0000 </r>
       <r>   -16.2771     0.0000    72.0000 </r>
       <r>   -16.1666     0.0000    72.0000 </r>
       <r>   -16.0562     0.0000    72.0000 </r>
       <r>   -15.9457     0.0000    72.0000 </r>
       <r>   -15.8353     0.0000    72.0000 </r>
       <r>   -15.7248     0.0000    72.0000 </r>
       <r>   -15.6143     0.0000    72.0000 </r>
       <r>   -15.5039     0.0000    72.0000 </r>
       <r>   -15.3934     0.0000    72.0000 </r>
       <r>   -15.2830     0.0000    72.0000 </r>
       <r>   -15.1725     0.0000    72.0000 </r>
       <r>   -15.0621     0.0000    72.0000 </r>
       <r>   -14.9516     0.0000    72.0000 </r>
       <r>   -14.8412     0.0000    72.0000 </r>
       <r>   -14.7307     0.0000    72.0000 </r>
       <r>   -14.6203     0.0000    72.0000 </r>
       <r>   -14.5098     0.0000    72.0000 </r>
       <r>   -14.3994     0.0000    72.0000 </r>
       <r>   -14.2889     0.0000    72.0000 </r>
       <r>   -14.1784     0.0000    72.0000 </r>
       <r>   -14.0680     0.0000    72.0000 </r>
       <r>   -13.9575     0.0000    72.0000 </r>
       <r>   -13.8471     0.0000    72.0000 </r>
       <r>   -13.7366     0.0000    72.0000 </r>
       <r>   -13.6262     0.0000    72.0000 </r>
       <r>   -13.5157     0.0000    72.0000 </r>
       <r>   -13.4053     0.0000    72.0000 </r>
       <r>   -13.2948     0.0000    72.0000 </r>
       <r>   -13.1844     0.0000    72.0000 </r>
       <r>   -13.0739     0.0000    72.0000 </r>
       <r>   -12.9635     0.0000    72.0000 </r>
       <r>   -12.8530     0.0000    72.0000 </r>
       <r>   -12.7426     0.0000    72.0000 </r>
       <r>   -12.6321     0.0000    72.0000 </r>
       <r>   -12.5216     0.0000    72.0000 </r>
       <r>   -12.4112     0.0000    72.0000 </r>
       <r>   -12.3007     0.0000    72.0000 </r>
       <r>   -12.1903     0.0000    72.0000 </r>
       <r>   -12.0798     0.0000    72.0000 </r>
       <r>   -11.9694     0.0000    72.0000 </r>
       <r>   -11.8589     0.0000    72.0000 </r>
       <r>   -11.7485     0.0000    72.0000 </r>
       <r>   -11.6380     0.0000    72.0000 </r>
       <r>   -11.5276     0.0000    72.0000 </r>
       <r>   -11.4171     0.0000    72.0000 </r>
       <r>   -11.3067     0.0000    72.0000 </r>
       <r>   -11.1962     0.0000    72.0000 </r>
       <r>   -11.0857     0.0000    72.0000 </r>
       <r>   -10.9753     0.0000    72.0000 </r>
       <r>   -10.8648     0.0000    72.0000 </r>
       <r>   -10.7544     0.0000    72.0000 </r>
       <r>   -10.6439     0.0000    72.0000 </r>
       <r>   -10.5335     0.0000    72.0000 </r>
       <r>   -10.4230     0.0000    72.0000 </r>
       <r>   -10.3126     0.0000    72.0000 </r>
       <r>   -10.2021     0.0000    72.0000 </r>
       <r>   -10.0917     0.0000    72.0000 </r>
       <r>    -9.9812     0.0000    72.0000 </r>
       <r>    -9.8708     0.0000    72.0000 </r>
       <r>    -9.7603     0.0000    72.0000 </r>
       <r>    -9.6498     0.0000    72.0000 </r>
       <r>    -9.5394     0.0000    72.0000 </r>
       <r>    -9.4289     0.0000    72.0000 </r>
       <r>    -9.3185     0.0000    72.0000 </r>
       <r>    -9.2080     0.0000    72.0000 </r>
       <r>    -9.0976     0.0000    72.0000 </r>
       <r>    -8.9871     0.0000    72.0000 </r>
       <r>    -8.8767     0.0000    72.0000 </r>
       <r>    -8.7662     0.0000    72.0000 </r>
       <r>    -8.6558    -0.0000    72.0000 </r>
       <r>    -8.5453    -0.0000    72.0000 </r>
       <r>    -8.4349    -0.0000    72.0000 </r>
       <r>    -8.3244    -0.0000    72.0000 </r>
       <r>    -8.2139    -0.0000    72.0000 </r>
       <r>    -8.1035    -0.0000    72.0000 </r>
       <r>    -7.9930    -0.0000    72.0000 </r>
       <r>    -7.8826    -0.0000    72.0000 </r>
       <r>    -7.7721    -0.0000    72.0000 </r>
       <r>    -7.6617    -0.0003    72.0000 </r>
       <r>    -7.5512    -0.0077    71.9991 </r>
       <r>    -7.4408    -0.0972    71.9884 </r>
       <r>    -7.3303    -0.5771    71.9246 </r>
       <r>    -7.2199    -1.1995    71.7921 </r>
       <r>    -7.1094     1.9739    72.0102 </r>
       <r>    -6.9990    13.8902    73.5444 </r>
       <r>    -6.8885    31.4663    77.0200 </r>
       <r>    -6.7781    45.1576    82.0078 </r>
       <r>    -6.6676    39.6090    86.3827 </r>
       <r>    -6.5571    20.3207    88.6272 </r>
       <r>    -6.4467    14.2265    90.1986 </r>
       <r>    -6.3362    22.7185    92.7080 </r>
       <r>    -6.2258    42.7612    97.4311 </r>
       <r>    -6.1153    70.7280   105.2432 </r>
       <r>    -6.0049    87.6554   114.9251 </r>
       <r>    -5.8944    87.9048   124.6345 </r>
       <r>    -5.7840    81.0069   133.5820 </r>
       <r>    -5.6735    80.7223   142.4981 </r>
       <r>    -5.5631    84.1878   151.7969 </r>
       <r>    -5.4526    69.5946   159.4839 </r>
       <r>    -5.3422    41.5449   164.0727 </r>
       <r>    -5.2317    32.8200   167.6978 </r>
       <r>    -5.1212    46.6814   172.8539 </r>
       <r>    -5.0108    55.8887   179.0271 </r>
       <r>    -4.9003    50.7426   184.6318 </r>
       <r>    -4.7899    48.0688   189.9411 </r>
       <r>    -4.6794    60.8188   196.6588 </r>
       <r>    -4.5690    79.9260   205.4869 </r>
       <r>    -4.4585    86.0613   214.9927 </r>
       <r>    -4.3481    71.6774   222.9098 </r>
       <r>    -4.2376    54.0592   228.8808 </r>
       <r>    -4.1272    57.0082   235.1776 </r>
       <r>    -4.0167    72.6228   243.1990 </r>
       <r>    -3.9063    80.3994   252.0794 </r>
       <r>    -3.7958    83.4792   261.3000 </r>
       <r>    -3.6853    76.8329   269.7865 </r>
       <r>    -3.5749    63.8875   276.8431 </r>
       <r>    -3.4644    55.4258   282.9651 </r>
       <r>    -3.3540    37.1625   287.0698 </r>
       <r>    -3.2435    11.5369   288.3441 </r>
       <r>    -3.1331    -1.0319   288.2301 </r>
       <r>    -3.0226    -1.6258   288.0505 </r>
       <r>    -2.9122    -0.4091   288.0054 </r>
       <r>    -2.8017    -0.0458   288.0003 </r>
       <r>    -2.6913    -0.0026   288.0000 </r>
       <r>    -2.5808    -0.0001   288.0000 </r>
       <r>    -2.4704    -0.0000   288.0000 </r>
       <r>    -2.3599    -0.0000   288.0000 </r>
       <r>    -2.2495    -0.0000   288.0000 </r>
       <r>    -2.1390    -0.0000   288.0000 </r>
       <r>    -2.0285    -0.0000   288.0000 </r>
       <r>    -1.9181    -0.0000   288.0000 </r>
       <r>    -1.8076    -0.0000   288.0000 </r>
       <r>    -1.6972    -0.0000   288.0000 </r>
       <r>    -1.5867    -0.0000   288.0000 </r>
       <r>    -1.4763    -0.0010   287.9999 </r>
       <r>    -1.3658    -0.0223   287.9974 </r>
       <r>    -1.2554    -0.2612   287.9686 </r>
       <r>    -1.1449    -1.4721   287.8060 </r>
       <r>    -1.0345    -2.9800   287.4768 </r>
       <r>    -0.9240     4.9969   288.0288 </r>
       <r>    -0.8136    35.7645   291.9791 </r>
       <r>    -0.7031    78.2318   300.6201 </r>
       <r>    -0.5926   106.9282   312.4307 </r>
       <r>    -0.4822   125.7418   326.3193 </r>
       <r>    -0.3717   145.0407   342.3396 </r>
       <r>    -0.2613   143.7060   358.2125 </r>
       <r>    -0.1508   121.1115   371.5897 </r>
       <r>    -0.0404    96.5797   382.2573 </r>
       <r>     0.0701    81.6892   391.2801 </r>
       <r>     0.1805    73.9141   399.4442 </r>
       <r>     0.2910    58.9409   405.9545 </r>
       <r>     0.4014    42.7867   410.6804 </r>
       <r>     0.5119    35.9347   414.6495 </r>
       <r>     0.6223    34.3202   418.4403 </r>
       <r>     0.7328    39.3606   422.7879 </r>
       <r>     0.8433    41.1760   427.3359 </r>
       <r>     0.9537    38.2735   431.5634 </r>
       <r>     1.0642    46.2118   436.6676 </r>
       <r>     1.1746    51.3975   442.3447 </r>
       <r>     1.2851    37.3704   446.4724 </r>
       <r>     1.3955    14.8587   448.1136 </r>
       <r>     1.5060     1.1236   448.2377 </r>
       <r>     1.6164    -1.4777   448.0745 </r>
       <r>     1.7269    -0.5777   448.0107 </r>
       <r>     1.8373    -0.0894   448.0008 </r>
       <r>     1.9478    -0.0068   448.0000 </r>
       <r>     2.0582    -0.0003   448.0000 </r>
       <r>     2.1687    -0.0000   448.0000 </r>
       <r>     2.2792    -0.0000   448.0000 </r>
       <r>     2.3896    -0.0000   448.0000 </r>
       <r>     2.5001    -0.0000   448.0000 </r>
       <r>     2.6105    -0.0000   448.0000 </r>
       <r>     2.7210    -0.0006   447.9999 </r>
       <r>     2.8314    -0.0111   447.9987 </r>
       <r>     2.9419    -0.1016   447.9875 </r>
       <r>     3.0523    -0.3700   447.9466 </r>
       <r>     3.1628     0.0919   447.9568 </r>
       <r>     3.2732     3.6315   448.3579 </r>
       <r>     3.3837     7.8680   449.2269 </r>
       <r>     3.4941     6.1934   449.9110 </r>
       <r>     3.6046     1.4452   450.0706 </r>
       <r>     3.7150    -0.4012   450.0263 </r>
       <r>     3.8255    -0.4076   449.9813 </r>
       <r>     3.9360    -0.4449   449.9322 </r>
       <r>     4.0464     0.9186   450.0336 </r>
       <r>     4.1569     5.4128   450.6315 </r>
       <r>     4.2673     7.8907   451.5030 </r>
       <r>     4.3778     4.0275   451.9479 </r>
       <r>     4.4882     1.3895   452.1014 </r>
       <r>     4.5987     5.1465   452.6698 </r>
       <r>     4.7091     7.9193   453.5445 </r>
       <r>     4.8196     4.2273   454.0114 </r>
       <r>     4.9300     0.0189   454.0135 </r>
       <r>     5.0405    -0.5064   453.9576 </r>
       <r>     5.1509     2.8217   454.2693 </r>
       <r>     5.2614     7.5216   455.1001 </r>
       <r>     5.3719     6.7912   455.8502 </r>
       <r>     5.4823     1.9873   456.0697 </r>
       <r>     5.5928    -0.3074   456.0357 </r>
       <r>     5.7032    -0.2679   456.0061 </r>
       <r>     5.8137    -0.0510   456.0005 </r>
       <r>     5.9241    -0.0043   456.0000 </r>
       <r>     6.0346    -0.0002   456.0000 </r>
       <r>     6.1450    -0.0000   456.0000 </r>
       <r>     6.2555    -0.0000   456.0000 </r>
       <r>     6.3659    -0.0000   456.0000 </r>
       <r>     6.4764    -0.0000   456.0000 </r>
       <r>     6.5868     0.0000   456.0000 </r>
       <r>     6.6973     0.0000   456.0000 </r>
       <r>     6.8078     0.0000   456.0000 </r>
       <r>     6.9182     0.0000   456.0000 </r>
       <r>     7.0287     0.0000   456.0000 </r>
       <r>     7.1391     0.0000   456.0000 </r>
       <r>     7.2496     0.0000   456.0000 </r>
      </set>
     </set>
    </array>
   </total>
  </dos>
 </calculation>
 <structure name="finalpos" >
  <crystal>
   <varray name="basis" >
    <v>       9.40119100       0.00000000      -0.00865400 </v>
    <v>       0.00000000       5.35946700       0.00000000 </v>
    <v>       0.00000000       0.00000000      14.95565100 </v>
   </varray>
   <i name="volume">    753.54605297 </i>
   <varray name="rec_basis" >
    <v>       0.10636950       0.00000000       0.00000000 </v>
    <v>       0.00000000       0.18658572       0.00000000 </v>
    <v>       0.00006155       0.00000000       0.06686436 </v>
   </varray>
  </crystal>
  <varray name="positions" >
   <v>       0.16411200       0.48397600       0.17995900 </v>
   <v>       0.16411200       0.51326900       0.67995900 </v>
   <v>       0.66411200       0.98397600       0.17995900 </v>
   <v>       0.66411200       0.01602400       0.67995900 </v>
   <v>       0.17533200       0.47285200       0.97303200 </v>
   <v>       0.17533200       0.52714800       0.47303200 </v>
   <v>       0.67533200       0.97285200       0.97303200 </v>
   <v>       0.67533200       0.02714800       0.47303200 </v>
   <v>       0.33162900       0.02941400       0.82240100 </v>
   <v>       0.33162900       0.97058600       0.32240100 </v>
   <v>       0.83162900       0.52941400       0.82240100 </v>
   <v>       0.83162900       0.47886600       0.32240100 </v>
   <v>       0.33361900       0.00432000       0.51711500 </v>
   <v>       0.33361900       0.99568000       0.01711500 </v>
   <v>       0.83361900       0.50432000       0.51711500 </v>
   <v>       0.83361900       0.49568000       0.01711500 </v>
   <v>       0.30926400       0.27210900       0.92544800 </v>
   <v>       0.30926400       0.73259200       0.42544800 </v>
   <v>       0.80926400       0.76740800       0.92544800 </v>
   <v>       0.80926400       0.23259200       0.42692400 </v>
   <v>       0.00386100       0.36884200       0.24394900 </v>
   <v>       0.00386100       0.63115800       0.74394900 </v>
   <v>       0.50386100       0.86884200       0.23610300 </v>
   <v>       0.50386100       0.13115800       0.74394900 </v>
   <v>       0.02591400       0.39537700       0.57915900 </v>
   <v>       0.02591400       0.60462300       0.07915900 </v>
   <v>       0.52591400       0.89537700       0.57915900 </v>
   <v>       0.52591400       0.10462300       0.07485400 </v>
   <v>       0.17611800       0.21417000       0.08350500 </v>
   <v>       0.17611800       0.78583000       0.58350500 </v>
   <v>       0.67611800       0.71417000       0.08350500 </v>
   <v>       0.67611800       0.28583000       0.58350500 </v>
   <v>       0.18147400       0.20344500       0.73945400 </v>
   <v>       0.18487600       0.79655500       0.23945400 </v>
   <v>       0.68147400       0.70344500       0.73945400 </v>
   <v>       0.68147400       0.29655500       0.23945400 </v>
   <v>       0.18900300       0.20186000       0.42366300 </v>
   <v>       0.18900300       0.79814000       0.92366300 </v>
   <v>       0.68900300       0.70186000       0.42366300 </v>
   <v>       0.68900300       0.29814000       0.92366300 </v>
   <v>       0.29347700       0.34686800       0.57827500 </v>
   <v>       0.29347700       0.65313200       0.07827500 </v>
   <v>       0.79347700       0.84686800       0.57827500 </v>
   <v>       0.79347700       0.15313200       0.07827500 </v>
   <v>       0.30310600       0.30561100       0.25150600 </v>
   <v>       0.30310600       0.69438900       0.74801900 </v>
   <v>       0.80310600       0.80561100       0.24801900 </v>
   <v>       0.80310600       0.19438900       0.74801900 </v>
   <v>       0.49071400       0.13464800       0.42295500 </v>
   <v>       0.49071400       0.86535200       0.92295500 </v>
   <v>       0.99071400       0.62540500       0.42295500 </v>
   <v>       0.99071400       0.36535200       0.92295500 </v>
  </varray>
 </structure>
</modeling>
