<?xml version="1.0" encoding="ISO-8859-1"?>
<modeling>
 <generator>
  <i name="program" type="string">vasp </i>
  <i name="version" type="string">5.3.5  </i>
  <i name="subversion" type="string">31Mar14 (build Aug 29 2014 19:41:47) complex                          parallel </i>
  <i name="platform" type="string">LinuxIFC </i>
  <i name="date" type="string">2019 04 11 </i>
  <i name="time" type="string">16:11:35 </i>
 </generator>
 <incar>
  <i type="string" name="SYSTEM"> Fe6OF11_var_23</i>
  <i type="int" name="ISTART">     0</i>
  <i type="string" name="PREC">normal</i>
  <i type="string" name="ALGO"> VeryFast</i>
  <i type="int" name="ISPIN">     1</i>
  <i type="int" name="ICHARG">     2</i>
  <i type="int" name="NELM">   300</i>
  <i type="int" name="ISYM">     0</i>
  <i type="logical" name="LWAVE"> F  </i>
  <i type="int" name="NELM">   300</i>
 </incar>
 <kpoints>
  <generation param="Gamma">
   <v type="int" name="divisions">       1        1        1 </v>
   <v name="usershift">      0.00000000       0.00000000       0.00000000 </v>
   <v name="genvec1">      1.00000000       0.00000000       0.00000000 </v>
   <v name="genvec2">      0.00000000       1.00000000       0.00000000 </v>
   <v name="genvec3">      0.00000000       0.00000000       1.00000000 </v>
   <v name="shift">      0.00000000       0.00000000       0.00000000 </v>
  </generation>
  <varray name="kpointlist" >
   <v>       0.00000000       0.00000000       0.00000000 </v>
  </varray>
  <varray name="weights" >
   <v>       1.00000000 </v>
  </varray>
 </kpoints>
 <parameters>
  <separator name="general" >
   <i type="string" name="SYSTEM">Fe6OF11_var_23</i>
   <i type="logical" name="LCOMPAT"> F  </i>
  </separator>
  <separator name="electronic" >
   <i type="string" name="PREC">normal</i>
   <i name="ENMAX">    400.00000000</i>
   <i name="ENAUG">    613.61400000</i>
   <i name="EDIFF">      0.00010000</i>
   <i type="int" name="IALGO">    48</i>
   <i type="int" name="IWAVPR">    10</i>
   <i type="int" name="NBANDS">   160</i>
   <i name="NELECT">    262.00000000</i>
   <i type="int" name="TURBO">     0</i>
   <i type="int" name="IRESTART">     0</i>
   <i type="int" name="NREBOOT">     0</i>
   <i type="int" name="NMIN">     0</i>
   <i name="EREF">      0.00000000</i>
   <separator name="electronic smearing" >
    <i type="int" name="ISMEAR">     1</i>
    <i name="SIGMA">      0.20000000</i>
    <i name="KSPACING">      0.50000000</i>
    <i type="logical" name="KGAMMA"> T  </i>
   </separator>
   <separator name="electronic projectors" >
    <i type="logical" name="LREAL"> F  </i>
    <v name="ROPT">      0.00000000      0.00000000      0.00000000</v>
    <i type="int" name="LMAXPAW">  -100</i>
    <i type="int" name="LMAXMIX">     2</i>
    <i type="logical" name="NLSPLINE"> F  </i>
   </separator>
   <separator name="electronic startup" >
    <i type="int" name="ISTART">     0</i>
    <i type="int" name="ICHARG">     2</i>
    <i type="int" name="INIWAV">     1</i>
   </separator>
   <separator name="electronic spin" >
    <i type="int" name="ISPIN">     1</i>
    <i type="logical" name="LNONCOLLINEAR"> F  </i>
    <v name="MAGMOM">      1.00000000      1.00000000      1.00000000      1.00000000      1.00000000      1.00000000      1.00000000      1.00000000      1.00000000      1.00000000      1.00000000      1.00000000      1.00000000      1.00000000      1.00000000      1.00000000      1.00000000      1.00000000      1.00000000      1.00000000
      1.00000000      1.00000000      1.00000000      1.00000000      1.00000000      1.00000000      1.00000000      1.00000000      1.00000000      1.00000000      1.00000000      1.00000000      1.00000000      1.00000000      1.00000000      1.00000000</v>
    <i name="NUPDOWN">     -1.00000000</i>
    <i type="logical" name="LSORBIT"> F  </i>
    <v name="SAXIS">      0.00000000      0.00000000      1.00000000</v>
    <i type="logical" name="LSPIRAL"> F  </i>
    <v name="QSPIRAL">      0.00000000      0.00000000      0.00000000</v>
    <i type="logical" name="LZEROZ"> F  </i>
   </separator>
   <separator name="electronic exchange-correlation" >
    <i type="logical" name="LASPH"> F  </i>
    <i type="logical" name="LMETAGGA"> F  </i>
   </separator>
   <separator name="electronic convergence" >
    <i type="int" name="NELM">   300</i>
    <i type="int" name="NELMDL">   -12</i>
    <i type="int" name="NELMIN">     2</i>
    <i name="ENINI">    400.00000000</i>
    <separator name="electronic convergence detail" >
     <i type="logical" name="LDIAG"> T  </i>
     <i type="logical" name="LSUBROT"> F  </i>
     <i name="WEIMIN">      0.00000000</i>
     <i name="EBREAK">      0.00000016</i>
     <i name="DEPER">      0.30000000</i>
     <i type="int" name="NRMM">     4</i>
     <i name="TIME">      0.40000000</i>
    </separator>
   </separator>
   <separator name="electronic mixer" >
    <i name="AMIX">      0.40000000</i>
    <i name="BMIX">      1.00000000</i>
    <i name="AMIN">      0.10000000</i>
    <i name="AMIX_MAG">      1.60000000</i>
    <i name="BMIX_MAG">      1.00000000</i>
    <separator name="electronic mixer details" >
     <i type="int" name="IMIX">     4</i>
     <i type="int" name="MAXMIX">   -45</i>
     <i name="WC">    100.00000000</i>
     <i type="int" name="INIMIX">     1</i>
     <i type="int" name="MIXPRE">     1</i>
     <i type="int" name="MREMOVE">     5</i>
    </separator>
   </separator>
   <separator name="electronic dipolcorrection" >
    <i type="logical" name="LDIPOL"> F  </i>
    <i type="logical" name="LMONO"> F  </i>
    <i type="int" name="IDIPOL">     0</i>
    <i name="EPSILON">      1.00000000</i>
    <v name="DIPOL">   -100.00000000   -100.00000000   -100.00000000</v>
    <i name="EFIELD">      0.00000000</i>
   </separator>
  </separator>
  <separator name="grids" >
   <i type="int" name="NGX">    16</i>
   <i type="int" name="NGY">   108</i>
   <i type="int" name="NGZ">    36</i>
   <i type="int" name="NGXF">    32</i>
   <i type="int" name="NGYF">   216</i>
   <i type="int" name="NGZF">    72</i>
   <i type="logical" name="ADDGRID"> F  </i>
  </separator>
  <separator name="ionic" >
   <i type="int" name="NSW">     0</i>
   <i type="int" name="IBRION">    -1</i>
   <i type="int" name="ISIF">     2</i>
   <i name="PSTRESS">      0.00000000</i>
   <i name="EDIFFG">      0.00100000</i>
   <i type="int" name="NFREE">     0</i>
   <i name="POTIM">      0.50000000</i>
   <i name="SMASS">     -3.00000000</i>
   <i name="SCALEE">      1.00000000</i>
  </separator>
  <separator name="ionic md" >
   <i name="TEBEG">      0.00010000</i>
   <i name="TEEND">      0.00010000</i>
   <i type="int" name="NBLOCK">     1</i>
   <i type="int" name="KBLOCK">     1</i>
   <i type="int" name="NPACO">   256</i>
   <i name="APACO">     16.00000000</i>
  </separator>
  <separator name="symmetry" >
   <i type="int" name="ISYM">     0</i>
   <i name="SYMPREC">      0.00001000</i>
  </separator>
  <separator name="dos" >
   <i type="logical" name="LORBIT"> F  </i>
   <v name="RWIGS">     -1.00000000     -1.00000000     -1.00000000</v>
   <i type="int" name="NEDOS">   301</i>
   <i name="EMIN">     10.00000000</i>
   <i name="EMAX">    -10.00000000</i>
   <i name="EFERMI">      0.00000000</i>
  </separator>
  <separator name="writing" >
   <i type="int" name="NWRITE">     2</i>
   <i type="logical" name="LWAVE"> F  </i>
   <i type="logical" name="LCHARG"> T  </i>
   <i type="logical" name="LPARD"> F  </i>
   <i type="logical" name="LVTOT"> F  </i>
   <i type="logical" name="LVHAR"> F  </i>
   <i type="logical" name="LELF"> F  </i>
   <i type="logical" name="LOPTICS"> F  </i>
   <v name="STM">      0.00000000      0.00000000      0.00000000      0.00000000      0.00000000      0.00000000      0.00000000</v>
  </separator>
  <separator name="performance" >
   <i type="int" name="NPAR">     4</i>
   <i type="int" name="NSIM">     4</i>
   <i type="int" name="NBLK">    -1</i>
   <i type="logical" name="LPLANE"> T  </i>
   <i type="logical" name="LSCALAPACK"> T  </i>
   <i type="logical" name="LSCAAWARE"> F  </i>
   <i type="logical" name="LSCALU"> F  </i>
   <i type="logical" name="LASYNC"> F  </i>
   <i type="logical" name="LORBITALREAL"> F  </i>
  </separator>
  <separator name="miscellaneous" >
   <i type="int" name="IDIOT">     3</i>
   <i type="logical" name="LMUSIC"> F  </i>
   <v name="POMASS">     55.84700000     16.00000000     18.99800000</v>
   <v name="DARWINR">      0.00000000      0.00000000      0.00000000</v>
   <v name="DARWINV">      1.00000000      1.00000000      1.00000000</v>
   <i type="logical" name="LCORR"> T  </i>
  </separator>
  <i type="logical" name="GGA_COMPAT"> T  </i>
  <i type="logical" name="LBERRY"> F  </i>
  <i type="int" name="ICORELEVEL">     0</i>
  <i type="logical" name="LDAU"> F  </i>
  <i type="int" name="I_CONSTRAINED_M">     0</i>
  <separator name="electronic exchange-correlation" >
   <i type="string" name="GGA">--</i>
   <i type="int" name="VOSKOWN">     0</i>
   <i type="logical" name="LHFCALC"> F  </i>
   <i type="string" name="PRECFOCK"></i>
   <i type="logical" name="LSYMGRAD"> F  </i>
   <i type="logical" name="LHFONE"> F  </i>
   <i type="logical" name="LRHFCALC"> F  </i>
   <i type="logical" name="LTHOMAS"> F  </i>
   <i type="logical" name="LMODELHF"> F  </i>
   <i name="ENCUT4O">     -1.00000000</i>
   <i type="int" name="EXXOEP">     0</i>
   <i type="int" name="FOURORBIT">     0</i>
   <i name="AEXX">      0.00000000</i>
   <i name="HFALPHA">      0.00000000</i>
   <i name="MCALPHA">      0.00000000</i>
   <i name="ALDAX">      1.00000000</i>
   <i name="AGGAX">      1.00000000</i>
   <i name="ALDAC">      1.00000000</i>
   <i name="AGGAC">      1.00000000</i>
   <i type="int" name="NKREDX">     1</i>
   <i type="int" name="NKREDY">     1</i>
   <i type="int" name="NKREDZ">     1</i>
   <i type="logical" name="SHIFTRED"> F  </i>
   <i type="logical" name="ODDONLY"> F  </i>
   <i type="logical" name="EVENONLY"> F  </i>
   <i type="int" name="LMAXFOCK">     0</i>
   <i type="int" name="NMAXFOCKAE">     0</i>
   <i type="logical" name="LFOCKAEDFT"> F  </i>
   <i name="HFSCREEN">      0.00000000</i>
   <i name="HFSCREENC">      0.00000000</i>
   <i type="int" name="NBANDSGWLOW">     0</i>
  </separator>
  <separator name="vdW DFT" >
   <i type="logical" name="LUSE_VDW"> F  </i>
   <i name="Zab_VDW">     -0.84910000</i>
   <i name="PARAM1">      0.12340000</i>
   <i name="PARAM2">      1.00000000</i>
   <i name="PARAM3">      0.00000000</i>
  </separator>
  <separator name="model GW" >
   <i type="int" name="MODEL_GW">     0</i>
   <i name="MODEL_EPS0">      7.56646665</i>
   <i name="MODEL_ALPHA">      1.00000000</i>
  </separator>
  <separator name="linear response parameters" >
   <i type="logical" name="LEPSILON"> F  </i>
   <i type="logical" name="LRPA"> F  </i>
   <i type="logical" name="LNABLA"> F  </i>
   <i type="logical" name="LVEL"> F  </i>
   <i type="int" name="KINTER">     0</i>
   <i name="CSHIFT">      0.10000000</i>
   <i name="OMEGAMAX">     -1.00000000</i>
   <i name="DEG_THRESHOLD">      0.00200000</i>
  </separator>
  <separator name="orbital magnetization" >
   <i type="logical" name="NUCIND"> F  </i>
   <v name="MAGPOS">      0.00000000      0.00000000      0.00000000</v>
   <i type="logical" name="LNICSALL"> T  </i>
   <i type="logical" name="ORBITALMAG"> F  </i>
   <i type="logical" name="LMAGBLOCH"> F  </i>
   <i type="logical" name="LCHIMAG"> F  </i>
   <i type="logical" name="LGAUGE"> T  </i>
   <i type="int" name="MAGATOM">     0</i>
   <v name="MAGDIPOL">      0.00000000      0.00000000      0.00000000</v>
   <v name="AVECCONST">      0.00000000      0.00000000      0.00000000</v>
  </separator>
  <separator name="response functions" >
   <i type="logical" name="LADDER"> F  </i>
   <i type="logical" name="LFXC"> F  </i>
   <i type="logical" name="LHARTREE"> T  </i>
   <i type="int" name="IBSE">     0</i>
   <i type="logical" name="LTCTE"> F  </i>
   <i type="logical" name="LTETE"> F  </i>
   <i type="logical" name="LTRIPLET"> F  </i>
   <i type="logical" name="LFXCEPS"> F  </i>
   <i type="logical" name="LFXHEG"> F  </i>
   <i type="logical" name="L2ORDER"> F  </i>
   <i type="logical" name="LUSEW"> F  </i>
   <i name="ENCUTGW">     -2.00000000</i>
   <i name="ENCUTGWSOFT">     -2.00000000</i>
   <i name="ENCUTLF">     -1.00000000</i>
   <i type="int" name="LMAXMP2">    -1</i>
   <i name="SCISSOR">      0.00000000</i>
   <i type="int" name="NOMEGA">     0</i>
   <i type="int" name="NOMEGAR">     0</i>
   <i type="int" name="NBANDSGW">    -1</i>
   <i type="int" name="NBANDSO">    -1</i>
   <i type="int" name="NBANDSV">    -1</i>
   <i type="int" name="NELM">   300</i>
   <i type="int" name="DIM">     3</i>
   <i type="int" name="ANTIRES">     0</i>
   <i name="OMEGAMAX">    -30.00000000</i>
   <i name="OMEGAMIN">    -30.00000000</i>
   <i name="OMEGATL">   -200.00000000</i>
   <i type="int" name="OMEGAGRID">     0</i>
   <i name="CSHIFT">     -0.10000000</i>
   <i type="logical" name="SELFENERGY"> F  </i>
   <i type="logical" name="LSPECTRAL"> F  </i>
   <i type="logical" name="ODDONLYGW"> F  </i>
   <i type="logical" name="EVENONLYGW"> F  </i>
   <i type="int" name="NKREDLFX">     1</i>
   <i type="int" name="NKREDLFY">     1</i>
   <i type="int" name="NKREDLFZ">     1</i>
   <i type="int" name="MAXMEM">  1800</i>
   <i type="int" name="TELESCOPE">     0</i>
   <i type="int" name="TAUPAR">     1</i>
  </separator>
  <separator name="External order field" >
   <i name="OFIELD_KAPPA">      0.00000000</i>
   <v name="OFIELD_K">      0.00000000      0.00000000      0.00000000</v>
   <i name="OFIELD_Q6_NEAR">      0.00000000</i>
   <i name="OFIELD_Q6_FAR">      0.00000000</i>
   <i name="OFIELD_A">      0.00000000</i>
  </separator>
 </parameters>
 <atominfo>
  <atoms>      36 </atoms>
  <types>       3 </types>
  <array name="atoms" >
   <dimension dim="1">ion</dimension>
   <field type="string">element</field>
   <field type="int">atomtype</field>
   <set>
    <rc><c>Fe</c><c>   1</c></rc>
    <rc><c>Fe</c><c>   1</c></rc>
    <rc><c>Fe</c><c>   1</c></rc>
    <rc><c>Fe</c><c>   1</c></rc>
    <rc><c>Fe</c><c>   1</c></rc>
    <rc><c>Fe</c><c>   1</c></rc>
    <rc><c>Fe</c><c>   1</c></rc>
    <rc><c>Fe</c><c>   1</c></rc>
    <rc><c>Fe</c><c>   1</c></rc>
    <rc><c>Fe</c><c>   1</c></rc>
    <rc><c>Fe</c><c>   1</c></rc>
    <rc><c>Fe</c><c>   1</c></rc>
    <rc><c>O </c><c>   2</c></rc>
    <rc><c>O </c><c>   2</c></rc>
    <rc><c>F </c><c>   3</c></rc>
    <rc><c>F </c><c>   3</c></rc>
    <rc><c>F </c><c>   3</c></rc>
    <rc><c>F </c><c>   3</c></rc>
    <rc><c>F </c><c>   3</c></rc>
    <rc><c>F </c><c>   3</c></rc>
    <rc><c>F </c><c>   3</c></rc>
    <rc><c>F </c><c>   3</c></rc>
    <rc><c>F </c><c>   3</c></rc>
    <rc><c>F </c><c>   3</c></rc>
    <rc><c>F </c><c>   3</c></rc>
    <rc><c>F </c><c>   3</c></rc>
    <rc><c>F </c><c>   3</c></rc>
    <rc><c>F </c><c>   3</c></rc>
    <rc><c>F </c><c>   3</c></rc>
    <rc><c>F </c><c>   3</c></rc>
    <rc><c>F </c><c>   3</c></rc>
    <rc><c>F </c><c>   3</c></rc>
    <rc><c>F </c><c>   3</c></rc>
    <rc><c>F </c><c>   3</c></rc>
    <rc><c>F </c><c>   3</c></rc>
    <rc><c>F </c><c>   3</c></rc>
   </set>
  </array>
  <array name="atomtypes" >
   <dimension dim="1">type</dimension>
   <field type="int">atomspertype</field>
   <field type="string">element</field>
   <field>mass</field>
   <field>valence</field>
   <field type="string">pseudopotential</field>
   <set>
    <rc><c>  12</c><c>Fe</c><c>     55.84700000</c><c>      8.00000000</c><c>  PAW_PBE Fe 06Sep2000                  </c></rc>
    <rc><c>   2</c><c>O </c><c>     16.00000000</c><c>      6.00000000</c><c>  PAW_PBE O 08Apr2002                   </c></rc>
    <rc><c>  22</c><c>F </c><c>     18.99800000</c><c>      7.00000000</c><c>  PAW_PBE F 08Apr2002                   </c></rc>
   </set>
  </array>
 </atominfo>
 <structure name="initialpos" >
  <crystal>
   <varray name="basis" >
    <v>       3.25262800       0.00000000       0.00000000 </v>
    <v>       0.00000000      20.54938400       0.00000000 </v>
    <v>       0.00000000       0.00000000       6.79221100 </v>
   </varray>
   <i name="volume">    453.98799923 </i>
   <varray name="rec_basis" >
    <v>       0.30744370       0.00000000       0.00000000 </v>
    <v>       0.00000000       0.04866326       0.00000000 </v>
    <v>       0.00000000       0.00000000       0.14722746 </v>
   </varray>
  </crystal>
  <varray name="positions" >
   <v>       0.00000000       0.16607300       0.50139100 </v>
   <v>       0.00000000       0.83328100       0.50139100 </v>
   <v>       0.99530500       0.66671900       0.00139100 </v>
   <v>       0.00000000       0.33328100       0.00800900 </v>
   <v>       0.50000000       0.16602100       0.00000400 </v>
   <v>       0.49801200       0.83397900       0.00000400 </v>
   <v>       0.50000000       0.66602100       0.49596900 </v>
   <v>       0.50000000       0.33397900       0.50000400 </v>
   <v>       0.00000000       0.00000000       0.01216200 </v>
   <v>       0.00000000       0.50065200       0.51216200 </v>
   <v>       0.50000000       0.00000000       0.47240000 </v>
   <v>       0.50000000       0.50000000       0.97240000 </v>
   <v>       0.00000000       0.00000000       0.31436200 </v>
   <v>       0.00000000       0.50000000       0.81436200 </v>
   <v>       0.00000000       0.16816900       0.20329900 </v>
   <v>       0.00529800       0.83183100       0.20329900 </v>
   <v>       0.00000000       0.66816900       0.70329900 </v>
   <v>       0.99746600       0.33090000       0.69494100 </v>
   <v>       0.00000000       0.16838200       0.79934600 </v>
   <v>       0.00000000       0.83161800       0.79934600 </v>
   <v>       0.00000000       0.66838200       0.29934600 </v>
   <v>       0.00000000       0.33161800       0.29934600 </v>
   <v>       0.50000000       0.06837200       0.99633700 </v>
   <v>       0.50000000       0.93162800       0.99633700 </v>
   <v>       0.49804300       0.56837200       0.49633700 </v>
   <v>       0.50000000       0.43162800       0.49633700 </v>
   <v>       0.50000000       0.09818400       0.50567900 </v>
   <v>       0.50000000       0.90270000       0.50567900 </v>
   <v>       0.50000000       0.59818400       0.00567900 </v>
   <v>       0.50000000       0.40181600       0.00567900 </v>
   <v>       0.50000000       0.23502700       0.50152500 </v>
   <v>       0.50000000       0.76594000       0.50152500 </v>
   <v>       0.50000000       0.72487400       0.00152500 </v>
   <v>       0.50000000       0.26804600       0.00152500 </v>
   <v>       0.00000000       0.00000000       0.69474100 </v>
   <v>       0.00000000       0.50000000       0.19474100 </v>
  </varray>
 </structure>
 <calculation>
  <scstep>
   <time name="diag">    0.31    0.52</time>
   <time name="diis">    0.45    0.72</time>
   <time name="orth">    0.03    0.07</time>
   <time name="total">    0.99    1.58</time>
   <energy>
    <i name="alphaZ">    943.57652748 </i>
    <i name="ewald"> -15974.88697156 </i>
    <i name="hartreedc">  -6708.58619657 </i>
    <i name="XCdc">    902.31252520 </i>
    <i name="pawpsdc">  19213.82102697 </i>
    <i name="pawaedc"> -19422.08171028 </i>
    <i name="eentropy">     -0.05627290 </i>
    <i name="bandstr">   1809.88073471 </i>
    <i name="atom">  22504.09828397 </i>
    <i name="e_fr_energy">   3268.07794702 </i>
    <i name="e_wo_entrp">   3268.13421992 </i>
    <i name="e_0_energy">   3268.09670466 </i>
   </energy>
  </scstep>
  <scstep>
   <time name="diag">    0.11    0.14</time>
   <time name="diis">    0.39    0.46</time>
   <time name="orth">    0.11    0.13</time>
   <time name="total">    0.62    0.73</time>
   <energy>
    <i name="e_fr_energy">   1022.46026773 </i>
    <i name="e_wo_entrp">   1022.42202928 </i>
    <i name="e_0_energy">   1022.44752158 </i>
   </energy>
  </scstep>
  <scstep>
   <time name="diag">    0.33    0.39</time>
   <time name="diis">    0.42    0.66</time>
   <time name="orth">    0.11    0.17</time>
   <time name="total">    0.86    1.22</time>
   <energy>
    <i name="e_fr_energy">    345.51855852 </i>
    <i name="e_wo_entrp">    345.36377906 </i>
    <i name="e_0_energy">    345.46696536 </i>
   </energy>
  </scstep>
  <scstep>
   <time name="diag">    0.12    0.12</time>
   <time name="diis">    0.43    0.50</time>
   <time name="orth">    0.04    0.08</time>
   <time name="total">    0.59    0.71</time>
   <energy>
    <i name="e_fr_energy">     65.55483519 </i>
    <i name="e_wo_entrp">     65.47213674 </i>
    <i name="e_0_energy">     65.52726904 </i>
   </energy>
  </scstep>
  <scstep>
   <time name="diag">    0.09    0.18</time>
   <time name="diis">    0.35    0.60</time>
   <time name="orth">    0.02    0.02</time>
   <time name="total">    0.47    0.81</time>
   <energy>
    <i name="e_fr_energy">    -93.65709668 </i>
    <i name="e_wo_entrp">    -93.79080696 </i>
    <i name="e_0_energy">    -93.70166677 </i>
   </energy>
  </scstep>
  <scstep>
   <time name="diag">    0.10    0.18</time>
   <time name="diis">    0.36    0.53</time>
   <time name="orth">    0.08    0.13</time>
   <time name="total">    0.53    0.84</time>
   <energy>
    <i name="e_fr_energy">   -162.74305141 </i>
    <i name="e_wo_entrp">   -162.84999953 </i>
    <i name="e_0_energy">   -162.77870079 </i>
   </energy>
  </scstep>
  <scstep>
   <time name="diag">    0.09    0.14</time>
   <time name="diis">    0.37    0.51</time>
   <time name="orth">    0.06    0.09</time>
   <time name="total">    0.53    0.74</time>
   <energy>
    <i name="e_fr_energy">   -196.28769503 </i>
    <i name="e_wo_entrp">   -196.46088752 </i>
    <i name="e_0_energy">   -196.34542586 </i>
   </energy>
  </scstep>
  <scstep>
   <time name="diag">    0.17    0.28</time>
   <time name="diis">    0.44    0.56</time>
   <time name="orth">    0.02    0.02</time>
   <time name="total">    0.64    0.86</time>
   <energy>
    <i name="e_fr_energy">   -209.06741197 </i>
    <i name="e_wo_entrp">   -209.28271442 </i>
    <i name="e_0_energy">   -209.13917945 </i>
   </energy>
  </scstep>
  <scstep>
   <time name="diag">    0.19    0.30</time>
   <time name="diis">    1.27    1.61</time>
   <time name="orth">    0.06    0.08</time>
   <time name="total">    1.52    1.98</time>
   <energy>
    <i name="e_fr_energy">   -221.77171341 </i>
    <i name="e_wo_entrp">   -221.99097422 </i>
    <i name="e_0_energy">   -221.84480035 </i>
   </energy>
  </scstep>
  <scstep>
   <time name="diag">    0.17    0.19</time>
   <time name="diis">    1.27    1.68</time>
   <time name="orth">    0.04    0.04</time>
   <time name="total">    1.49    1.92</time>
   <energy>
    <i name="e_fr_energy">   -222.11955532 </i>
    <i name="e_wo_entrp">   -222.32236710 </i>
    <i name="e_0_energy">   -222.18715924 </i>
   </energy>
  </scstep>
  <scstep>
   <time name="diag">    0.23    0.26</time>
   <time name="diis">    1.30    1.64</time>
   <time name="orth">    0.02    0.04</time>
   <time name="total">    1.56    1.94</time>
   <energy>
    <i name="e_fr_energy">   -222.38776949 </i>
    <i name="e_wo_entrp">   -222.55311986 </i>
    <i name="e_0_energy">   -222.44288628 </i>
   </energy>
  </scstep>
  <scstep>
   <time name="diag">    0.13    0.16</time>
   <time name="diis">    1.00    1.28</time>
   <time name="orth">    0.13    0.21</time>
   <time name="total">    1.42    1.93</time>
   <energy>
    <i name="e_fr_energy">   -222.53400012 </i>
    <i name="e_wo_entrp">   -222.67204089 </i>
    <i name="e_0_energy">   -222.58001371 </i>
   </energy>
  </scstep>
  <scstep>
   <time name="diag">    0.35    0.66</time>
   <time name="diis">    0.98    1.16</time>
   <time name="orth">    0.09    0.10</time>
   <time name="total">    1.71    2.38</time>
   <energy>
    <i name="e_fr_energy">   -208.81836230 </i>
    <i name="e_wo_entrp">   -208.73707095 </i>
    <i name="e_0_energy">   -208.79126518 </i>
   </energy>
  </scstep>
  <scstep>
   <time name="diag">    0.20    0.40</time>
   <time name="diis">    0.76    1.04</time>
   <time name="orth">    0.03    0.06</time>
   <time name="total">    1.24    1.87</time>
   <energy>
    <i name="e_fr_energy">   -284.69932182 </i>
    <i name="e_wo_entrp">   -284.69743910 </i>
    <i name="e_0_energy">   -284.69869425 </i>
   </energy>
  </scstep>
  <scstep>
   <time name="diag">    0.20    0.32</time>
   <time name="diis">    0.81    1.16</time>
   <time name="orth">    0.08    0.12</time>
   <time name="total">    1.34    1.95</time>
   <energy>
    <i name="e_fr_energy">   -253.70006999 </i>
    <i name="e_wo_entrp">   -253.77798978 </i>
    <i name="e_0_energy">   -253.72604326 </i>
   </energy>
  </scstep>
  <scstep>
   <time name="diag">    0.21    0.27</time>
   <time name="diis">    0.71    1.06</time>
   <time name="orth">    0.03    0.06</time>
   <time name="total">    1.15    1.70</time>
   <energy>
    <i name="e_fr_energy">   -221.63888013 </i>
    <i name="e_wo_entrp">   -221.48911728 </i>
    <i name="e_0_energy">   -221.58895918 </i>
   </energy>
  </scstep>
  <scstep>
   <time name="diag">    0.20    0.27</time>
   <time name="diis">    0.73    1.13</time>
   <time name="orth">    0.10    0.20</time>
   <time name="total">    1.29    1.95</time>
   <energy>
    <i name="e_fr_energy">   -218.28130598 </i>
    <i name="e_wo_entrp">   -218.35554431 </i>
    <i name="e_0_energy">   -218.30605209 </i>
   </energy>
  </scstep>
  <scstep>
   <time name="diag">    0.24    0.32</time>
   <time name="diis">    0.76    1.05</time>
   <time name="orth">    0.06    0.06</time>
   <time name="total">    1.40    1.88</time>
   <energy>
    <i name="e_fr_energy">   -244.89969574 </i>
    <i name="e_wo_entrp">   -244.83166525 </i>
    <i name="e_0_energy">   -244.87701891 </i>
   </energy>
  </scstep>
  <scstep>
   <time name="diag">    0.45    0.71</time>
   <time name="diis">    0.77    1.10</time>
   <time name="orth">    0.19    0.27</time>
   <time name="total">    1.76    2.58</time>
   <energy>
    <i name="e_fr_energy">   -230.95085985 </i>
    <i name="e_wo_entrp">   -230.78767441 </i>
    <i name="e_0_energy">   -230.89646470 </i>
   </energy>
  </scstep>
  <scstep>
   <time name="diag">    0.17    0.21</time>
   <time name="diis">    0.77    1.00</time>
   <time name="orth">    0.09    0.10</time>
   <time name="total">    1.22    1.64</time>
   <energy>
    <i name="e_fr_energy">   -229.62326997 </i>
    <i name="e_wo_entrp">   -229.43034984 </i>
    <i name="e_0_energy">   -229.55896326 </i>
   </energy>
  </scstep>
  <scstep>
   <time name="diag">    0.32    0.50</time>
   <time name="diis">    0.87    1.13</time>
   <time name="orth">    0.15    0.24</time>
   <time name="total">    1.54    2.20</time>
   <energy>
    <i name="e_fr_energy">   -217.10338944 </i>
    <i name="e_wo_entrp">   -217.25452803 </i>
    <i name="e_0_energy">   -217.15376897 </i>
   </energy>
  </scstep>
  <scstep>
   <time name="diag">    0.24    0.41</time>
   <time name="diis">    0.73    1.09</time>
   <time name="orth">    0.02    0.04</time>
   <time name="total">    1.31    1.96</time>
   <energy>
    <i name="e_fr_energy">   -214.01066256 </i>
    <i name="e_wo_entrp">   -213.96255648 </i>
    <i name="e_0_energy">   -213.99462720 </i>
   </energy>
  </scstep>
  <scstep>
   <time name="diag">    0.30    0.36</time>
   <time name="diis">    0.69    1.12</time>
   <time name="orth">    0.11    0.21</time>
   <time name="total">    1.43    2.17</time>
   <energy>
    <i name="e_fr_energy">   -214.12937152 </i>
    <i name="e_wo_entrp">   -214.27307199 </i>
    <i name="e_0_energy">   -214.17727167 </i>
   </energy>
  </scstep>
  <scstep>
   <time name="diag">    0.22    0.31</time>
   <time name="diis">    0.81    1.30</time>
   <time name="orth">    0.16    0.26</time>
   <time name="total">    1.39    2.10</time>
   <energy>
    <i name="e_fr_energy">   -228.56982906 </i>
    <i name="e_wo_entrp">   -228.60000877 </i>
    <i name="e_0_energy">   -228.57988896 </i>
   </energy>
  </scstep>
  <scstep>
   <time name="diag">    0.21    0.38</time>
   <time name="diis">    0.77    1.17</time>
   <time name="orth">    0.18    0.21</time>
   <time name="total">    1.37    2.10</time>
   <energy>
    <i name="e_fr_energy">   -202.91043817 </i>
    <i name="e_wo_entrp">   -202.92184519 </i>
    <i name="e_0_energy">   -202.91424051 </i>
   </energy>
  </scstep>
  <scstep>
   <time name="diag">    0.31    0.43</time>
   <time name="diis">    0.99    1.18</time>
   <time name="orth">    0.05    0.06</time>
   <time name="total">    1.51    1.88</time>
   <energy>
    <i name="e_fr_energy">   -200.74653139 </i>
    <i name="e_wo_entrp">   -200.71086223 </i>
    <i name="e_0_energy">   -200.73464167 </i>
   </energy>
  </scstep>
  <scstep>
   <time name="diag">    0.20    0.23</time>
   <time name="diis">    0.73    1.06</time>
   <time name="orth">    0.04    0.06</time>
   <time name="total">    1.17    1.60</time>
   <energy>
    <i name="e_fr_energy">   -193.25787277 </i>
    <i name="e_wo_entrp">   -193.39920677 </i>
    <i name="e_0_energy">   -193.30498410 </i>
   </energy>
  </scstep>
  <scstep>
   <time name="diag">    0.28    0.41</time>
   <time name="diis">    0.72    1.10</time>
   <time name="orth">    0.12    0.19</time>
   <time name="total">    1.31    1.95</time>
   <energy>
    <i name="e_fr_energy">   -191.51679541 </i>
    <i name="e_wo_entrp">   -191.61368850 </i>
    <i name="e_0_energy">   -191.54909311 </i>
   </energy>
  </scstep>
  <scstep>
   <time name="diag">    0.16    0.20</time>
   <time name="diis">    0.84    1.08</time>
   <time name="orth">    0.09    0.11</time>
   <time name="total">    1.52    1.95</time>
   <energy>
    <i name="e_fr_energy">   -190.77227081 </i>
    <i name="e_wo_entrp">   -190.79444346 </i>
    <i name="e_0_energy">   -190.77966169 </i>
   </energy>
  </scstep>
  <scstep>
   <time name="diag">    0.14    0.17</time>
   <time name="diis">    0.69    1.26</time>
   <time name="orth">    0.32    0.59</time>
   <time name="total">    1.41    2.33</time>
   <energy>
    <i name="e_fr_energy">   -190.28621861 </i>
    <i name="e_wo_entrp">   -190.51140369 </i>
    <i name="e_0_energy">   -190.36128030 </i>
   </energy>
  </scstep>
  <scstep>
   <time name="diag">    0.12    0.22</time>
   <time name="diis">    0.70    1.16</time>
   <time name="orth">    0.10    0.13</time>
   <time name="total">    1.04    1.72</time>
   <energy>
    <i name="e_fr_energy">   -189.66480875 </i>
    <i name="e_wo_entrp">   -189.63429342 </i>
    <i name="e_0_energy">   -189.65463698 </i>
   </energy>
  </scstep>
  <scstep>
   <time name="diag">    0.21    0.39</time>
   <time name="diis">    0.81    1.10</time>
   <time name="orth">    0.04    0.04</time>
   <time name="total">    1.40    2.04</time>
   <energy>
    <i name="e_fr_energy">   -189.51784443 </i>
    <i name="e_wo_entrp">   -189.52773901 </i>
    <i name="e_0_energy">   -189.52114262 </i>
   </energy>
  </scstep>
  <scstep>
   <time name="diag">    0.31    0.40</time>
   <time name="diis">    0.80    1.16</time>
   <time name="orth">    0.22    0.29</time>
   <time name="total">    1.50    2.17</time>
   <energy>
    <i name="e_fr_energy">   -189.43127401 </i>
    <i name="e_wo_entrp">   -189.41057737 </i>
    <i name="e_0_energy">   -189.42437513 </i>
   </energy>
  </scstep>
  <scstep>
   <time name="diag">    0.14    0.28</time>
   <time name="diis">    0.98    1.57</time>
   <time name="orth">    0.07    0.10</time>
   <time name="total">    1.58    2.50</time>
   <energy>
    <i name="e_fr_energy">   -189.58167520 </i>
    <i name="e_wo_entrp">   -189.53633521 </i>
    <i name="e_0_energy">   -189.56656187 </i>
   </energy>
  </scstep>
  <scstep>
   <time name="diag">    0.24    0.38</time>
   <time name="diis">    0.95    1.65</time>
   <time name="orth">    0.13    0.18</time>
   <time name="total">    1.54    2.52</time>
   <energy>
    <i name="e_fr_energy">   -189.53759124 </i>
    <i name="e_wo_entrp">   -189.47476432 </i>
    <i name="e_0_energy">   -189.51664894 </i>
   </energy>
  </scstep>
  <scstep>
   <time name="diag">    0.40    0.46</time>
   <time name="diis">    1.08    1.43</time>
   <time name="orth">    0.05    0.08</time>
   <time name="total">    1.71    2.29</time>
   <energy>
    <i name="e_fr_energy">   -189.42975809 </i>
    <i name="e_wo_entrp">   -189.35915763 </i>
    <i name="e_0_energy">   -189.40622460 </i>
   </energy>
  </scstep>
  <scstep>
   <time name="diag">    0.39    0.44</time>
   <time name="diis">    1.01    1.44</time>
   <time name="orth">    0.09    0.13</time>
   <time name="total">    1.91    2.59</time>
   <energy>
    <i name="e_fr_energy">   -189.38503335 </i>
    <i name="e_wo_entrp">   -189.35214595 </i>
    <i name="e_0_energy">   -189.37407089 </i>
   </energy>
  </scstep>
  <scstep>
   <time name="diag">    0.22    0.25</time>
   <time name="diis">    0.82    1.18</time>
   <time name="orth">    0.03    0.06</time>
   <time name="total">    1.23    1.65</time>
   <energy>
    <i name="e_fr_energy">   -189.38231872 </i>
    <i name="e_wo_entrp">   -189.35575914 </i>
    <i name="e_0_energy">   -189.37346552 </i>
   </energy>
  </scstep>
  <scstep>
   <time name="diag">    0.22    0.33</time>
   <time name="diis">    0.75    1.13</time>
   <time name="orth">    0.06    0.08</time>
   <time name="total">    1.54    2.19</time>
   <energy>
    <i name="e_fr_energy">   -189.33858956 </i>
    <i name="e_wo_entrp">   -189.32160731 </i>
    <i name="e_0_energy">   -189.33292881 </i>
   </energy>
  </scstep>
  <scstep>
   <time name="diag">    0.15    0.19</time>
   <time name="diis">    0.78    1.01</time>
   <time name="orth">    0.05    0.05</time>
   <time name="total">    1.16    1.52</time>
   <energy>
    <i name="e_fr_energy">   -189.29909932 </i>
    <i name="e_wo_entrp">   -189.29388593 </i>
    <i name="e_0_energy">   -189.29736152 </i>
   </energy>
  </scstep>
  <scstep>
   <time name="diag">    0.14    0.17</time>
   <time name="diis">    0.75    1.11</time>
   <time name="orth">    0.07    0.08</time>
   <time name="total">    1.19    1.69</time>
   <energy>
    <i name="e_fr_energy">   -189.29352957 </i>
    <i name="e_wo_entrp">   -189.27213106 </i>
    <i name="e_0_energy">   -189.28639674 </i>
   </energy>
  </scstep>
  <scstep>
   <time name="diag">    0.33    0.44</time>
   <time name="diis">    0.68    1.07</time>
   <time name="orth">    0.11    0.16</time>
   <time name="total">    1.62    2.47</time>
   <energy>
    <i name="e_fr_energy">   -189.27579366 </i>
    <i name="e_wo_entrp">   -189.27107277 </i>
    <i name="e_0_energy">   -189.27422003 </i>
   </energy>
  </scstep>
  <scstep>
   <time name="diag">    0.17    0.26</time>
   <time name="diis">    0.79    1.01</time>
   <time name="orth">    0.10    0.12</time>
   <time name="total">    1.52    1.98</time>
   <energy>
    <i name="e_fr_energy">   -189.25747860 </i>
    <i name="e_wo_entrp">   -189.25113658 </i>
    <i name="e_0_energy">   -189.25536460 </i>
   </energy>
  </scstep>
  <scstep>
   <time name="diag">    0.26    0.37</time>
   <time name="diis">    0.65    0.92</time>
   <time name="orth">    0.13    0.22</time>
   <time name="total">    1.19    1.74</time>
   <energy>
    <i name="e_fr_energy">   -189.25501002 </i>
    <i name="e_wo_entrp">   -189.24681452 </i>
    <i name="e_0_energy">   -189.25227818 </i>
   </energy>
  </scstep>
  <scstep>
   <time name="diag">    0.26    0.44</time>
   <time name="diis">    0.62    0.91</time>
   <time name="orth">    0.06    0.06</time>
   <time name="total">    1.30    1.87</time>
   <energy>
    <i name="e_fr_energy">   -189.25163997 </i>
    <i name="e_wo_entrp">   -189.24768780 </i>
    <i name="e_0_energy">   -189.25032258 </i>
   </energy>
  </scstep>
  <scstep>
   <time name="diag">    0.46    0.68</time>
   <time name="diis">    0.49    0.75</time>
   <time name="orth">    0.13    0.16</time>
   <time name="total">    1.43    2.08</time>
   <energy>
    <i name="e_fr_energy">   -189.24815101 </i>
    <i name="e_wo_entrp">   -189.24097358 </i>
    <i name="e_0_energy">   -189.24575853 </i>
   </energy>
  </scstep>
  <scstep>
   <time name="diag">    0.24    0.28</time>
   <time name="diis">    0.56    0.77</time>
   <time name="orth">    0.09    0.16</time>
   <time name="total">    1.43    1.87</time>
   <energy>
    <i name="e_fr_energy">   -189.24767274 </i>
    <i name="e_wo_entrp">   -189.24092753 </i>
    <i name="e_0_energy">   -189.24542434 </i>
   </energy>
  </scstep>
  <scstep>
   <time name="diag">    0.09    0.18</time>
   <time name="diis">    0.39    0.53</time>
   <time name="orth">    0.03    0.06</time>
   <time name="total">    0.64    1.00</time>
   <energy>
    <i name="e_fr_energy">   -189.24684926 </i>
    <i name="e_wo_entrp">   -189.23967705 </i>
    <i name="e_0_energy">   -189.24445853 </i>
   </energy>
  </scstep>
  <scstep>
   <time name="diag">    0.13    0.17</time>
   <time name="diis">    0.49    0.86</time>
   <time name="orth">    0.08    0.13</time>
   <time name="total">    1.10    1.71</time>
   <energy>
    <i name="e_fr_energy">   -189.24480515 </i>
    <i name="e_wo_entrp">   -189.23683493 </i>
    <i name="e_0_energy">   -189.24214841 </i>
   </energy>
  </scstep>
  <scstep>
   <time name="diag">    0.32    0.51</time>
   <time name="diis">    0.44    0.60</time>
   <time name="orth">    0.05    0.07</time>
   <time name="total">    1.21    1.80</time>
   <energy>
    <i name="e_fr_energy">   -189.24465385 </i>
    <i name="e_wo_entrp">   -189.23636709 </i>
    <i name="e_0_energy">   -189.24189160 </i>
   </energy>
  </scstep>
  <scstep>
   <time name="diag">    0.20    0.26</time>
   <time name="diis">    0.51    0.67</time>
   <time name="orth">    0.02    0.04</time>
   <time name="total">    1.06    1.47</time>
   <energy>
    <i name="e_fr_energy">   -189.24404940 </i>
    <i name="e_wo_entrp">   -189.23561356 </i>
    <i name="e_0_energy">   -189.24123746 </i>
   </energy>
  </scstep>
  <scstep>
   <time name="diag">    0.55    0.81</time>
   <time name="diis">    0.49    0.71</time>
   <time name="orth">    0.06    0.07</time>
   <time name="total">    1.33    1.94</time>
   <energy>
    <i name="e_fr_energy">   -189.24339839 </i>
    <i name="e_wo_entrp">   -189.23461623 </i>
    <i name="e_0_energy">   -189.24047100 </i>
   </energy>
  </scstep>
  <scstep>
   <time name="diag">    0.24    0.39</time>
   <time name="diis">    0.48    0.60</time>
   <time name="orth">    0.06    0.06</time>
   <time name="total">    1.15    1.46</time>
   <energy>
    <i name="e_fr_energy">   -189.24320400 </i>
    <i name="e_wo_entrp">   -189.23400234 </i>
    <i name="e_0_energy">   -189.24013678 </i>
   </energy>
  </scstep>
  <scstep>
   <time name="diag">    0.20    0.29</time>
   <time name="diis">    0.41    0.66</time>
   <time name="orth">    0.15    0.17</time>
   <time name="total">    0.98    1.43</time>
   <energy>
    <i name="alphaZ">    943.57652748 </i>
    <i name="ewald"> -15974.88697156 </i>
    <i name="hartreedc">  -6868.44443767 </i>
    <i name="XCdc">    918.67290113 </i>
    <i name="pawpsdc">  22442.19363583 </i>
    <i name="pawaedc"> -22652.59522647 </i>
    <i name="eentropy">     -0.00948672 </i>
    <i name="bandstr">  -1501.84837534 </i>
    <i name="atom">  22504.09828397 </i>
    <i name="e_fr_energy">   -189.24314935 </i>
    <i name="e_wo_entrp">   -189.23366263 </i>
    <i name="e_0_energy">   -189.23998711 </i>
   </energy>
  </scstep>
  <structure>
   <crystal>
    <varray name="basis" >
     <v>       3.25262800       0.00000000       0.00000000 </v>
     <v>       0.00000000      20.54938400       0.00000000 </v>
     <v>       0.00000000       0.00000000       6.79221100 </v>
    </varray>
    <i name="volume">    453.98799923 </i>
    <varray name="rec_basis" >
     <v>       0.30744370       0.00000000       0.00000000 </v>
     <v>       0.00000000       0.04866326       0.00000000 </v>
     <v>       0.00000000       0.00000000       0.14722746 </v>
    </varray>
   </crystal>
   <varray name="positions" >
    <v>       0.00000000       0.16607300       0.50139100 </v>
    <v>       0.00000000       0.83328100       0.50139100 </v>
    <v>       0.99530500       0.66671900       0.00139100 </v>
    <v>       0.00000000       0.33328100       0.00800900 </v>
    <v>       0.50000000       0.16602100       0.00000400 </v>
    <v>       0.49801200       0.83397900       0.00000400 </v>
    <v>       0.50000000       0.66602100       0.49596900 </v>
    <v>       0.50000000       0.33397900       0.50000400 </v>
    <v>       0.00000000       0.00000000       0.01216200 </v>
    <v>       0.00000000       0.50065200       0.51216200 </v>
    <v>       0.50000000       0.00000000       0.47240000 </v>
    <v>       0.50000000       0.50000000       0.97240000 </v>
    <v>       0.00000000       0.00000000       0.31436200 </v>
    <v>       0.00000000       0.50000000       0.81436200 </v>
    <v>       0.00000000       0.16816900       0.20329900 </v>
    <v>       0.00529800       0.83183100       0.20329900 </v>
    <v>       0.00000000       0.66816900       0.70329900 </v>
    <v>       0.99746600       0.33090000       0.69494100 </v>
    <v>       0.00000000       0.16838200       0.79934600 </v>
    <v>       0.00000000       0.83161800       0.79934600 </v>
    <v>       0.00000000       0.66838200       0.29934600 </v>
    <v>       0.00000000       0.33161800       0.29934600 </v>
    <v>       0.50000000       0.06837200       0.99633700 </v>
    <v>       0.50000000       0.93162800       0.99633700 </v>
    <v>       0.49804300       0.56837200       0.49633700 </v>
    <v>       0.50000000       0.43162800       0.49633700 </v>
    <v>       0.50000000       0.09818400       0.50567900 </v>
    <v>       0.50000000       0.90270000       0.50567900 </v>
    <v>       0.50000000       0.59818400       0.00567900 </v>
    <v>       0.50000000       0.40181600       0.00567900 </v>
    <v>       0.50000000       0.23502700       0.50152500 </v>
    <v>       0.50000000       0.76594000       0.50152500 </v>
    <v>       0.50000000       0.72487400       0.00152500 </v>
    <v>       0.50000000       0.26804600       0.00152500 </v>
    <v>       0.00000000       0.00000000       0.69474100 </v>
    <v>       0.00000000       0.50000000       0.19474100 </v>
   </varray>
  </structure>
  <varray name="forces" >
   <v>       0.00036118       0.12663673       0.07474520 </v>
   <v>       0.08655899       0.14745429       0.07132774 </v>
   <v>       0.20524291      -1.06891108       0.01168464 </v>
   <v>      -0.02926417       0.22348085      -0.42168907 </v>
   <v>       0.00065484       0.29939047       0.06267720 </v>
   <v>       0.12678843      -0.10367792       0.05787514 </v>
   <v>       0.02766593       0.26573462       0.41379457 </v>
   <v>      -0.03473487      -0.32434153      -0.08253105 </v>
   <v>       0.00624869      -0.02203695       1.02373879 </v>
   <v>      -0.01804804      -0.13283031       0.99011506 </v>
   <v>      -0.00019650      -0.01058784       0.13973368 </v>
   <v>       0.00733233      -0.01750850       0.09178876 </v>
   <v>       0.00004018       0.03080975      -1.18354571 </v>
   <v>       0.00032302       0.02338388      -1.08799144 </v>
   <v>       0.00006787      -0.20696988      -0.24500258 </v>
   <v>      -0.12528550       0.13323387      -0.28461634 </v>
   <v>      -0.06140132      -0.18478979      -0.40687951 </v>
   <v>       0.05064283       0.26812778       0.10547180 </v>
   <v>       0.00011996      -0.21049808       0.18598052 </v>
   <v>      -0.07177523       0.13765360       0.22336267 </v>
   <v>      -0.06190803      -0.17605453       0.10623901 </v>
   <v>       0.02102213       0.22459538       0.30814682 </v>
   <v>      -0.00181715      -0.47564399       0.20416264 </v>
   <v>      -0.01485585       0.48561998       0.21030563 </v>
   <v>       0.02994478      -0.50328016       0.17133517 </v>
   <v>       0.00550782       0.56176851       0.20938835 </v>
   <v>      -0.00024877       0.81067693      -0.19082468 </v>
   <v>       0.00229252      -0.94111548      -0.17776579 </v>
   <v>      -0.04673997       0.86663552      -0.17197557 </v>
   <v>      -0.00345912      -0.85495717      -0.09681020 </v>
   <v>      -0.00237634      -0.57024498      -0.03651157 </v>
   <v>       0.00621897       0.42208692      -0.06670639 </v>
   <v>      -0.10284587       0.53467269      -0.01773734 </v>
   <v>      -0.00152986       0.21241191       0.06005801 </v>
   <v>       0.00009604       0.00848656      -0.11166779 </v>
   <v>      -0.00064284       0.02058796      -0.13967637 </v>
  </varray>
  <varray name="stress" >
   <v>    -247.29060197      -0.19832808       0.07429352 </v>
   <v>      -0.19832665    -252.34590802      -0.14475155 </v>
   <v>       0.07429252      -0.14475112    -283.15874017 </v>
  </varray>
  <energy>
   <i name="e_fr_energy">   -189.24314935 </i>
   <i name="e_wo_entrp">   -189.23998711 </i>
   <i name="e_0_energy">     -0.00948672 </i>
  </energy>
  <time name="totalsc">   71.48  101.66</time>
  <eigenvalues>
   <array>
    <dimension dim="1">band</dimension>
    <dimension dim="2">kpoint</dimension>
    <dimension dim="3">spin</dimension>
    <field>eigene</field>
    <field>occ</field>
    <set>
     <set comment="spin 1">
      <set comment="kpoint 1">
       <r>  -22.8622    1.0000 </r>
       <r>  -22.7364    1.0000 </r>
       <r>  -22.6269    1.0000 </r>
       <r>  -22.5850    1.0000 </r>
       <r>  -22.5631    1.0000 </r>
       <r>  -22.3717    1.0000 </r>
       <r>  -22.3446    1.0000 </r>
       <r>  -22.3369    1.0000 </r>
       <r>  -22.3044    1.0000 </r>
       <r>  -22.2898    1.0000 </r>
       <r>  -22.2562    1.0000 </r>
       <r>  -22.2534    1.0000 </r>
       <r>  -22.2163    1.0000 </r>
       <r>  -22.1980    1.0000 </r>
       <r>  -22.1563    1.0000 </r>
       <r>  -22.1318    1.0000 </r>
       <r>  -22.1302    1.0000 </r>
       <r>  -22.1211    1.0000 </r>
       <r>  -22.1082    1.0000 </r>
       <r>  -22.0602    1.0000 </r>
       <r>  -20.9342    1.0000 </r>
       <r>  -20.9316    1.0000 </r>
       <r>  -16.5321    1.0000 </r>
       <r>  -16.5293    1.0000 </r>
       <r>   -6.1904    1.0000 </r>
       <r>   -6.0907    1.0000 </r>
       <r>   -5.9249    1.0000 </r>
       <r>   -5.8495    1.0000 </r>
       <r>   -5.6845    1.0000 </r>
       <r>   -5.4812    1.0000 </r>
       <r>   -5.4426    1.0000 </r>
       <r>   -5.3728    1.0000 </r>
       <r>   -5.2867    1.0000 </r>
       <r>   -5.1224    1.0000 </r>
       <r>   -4.7826    1.0000 </r>
       <r>   -4.6664    1.0000 </r>
       <r>   -4.5826    1.0000 </r>
       <r>   -4.5084    1.0000 </r>
       <r>   -4.4640    1.0000 </r>
       <r>   -4.4023    1.0000 </r>
       <r>   -4.4005    1.0000 </r>
       <r>   -4.3988    1.0000 </r>
       <r>   -4.3550    1.0000 </r>
       <r>   -4.3361    1.0000 </r>
       <r>   -4.3101    1.0000 </r>
       <r>   -4.2894    1.0000 </r>
       <r>   -4.2866    1.0000 </r>
       <r>   -4.2850    1.0000 </r>
       <r>   -4.2299    1.0000 </r>
       <r>   -4.1962    1.0000 </r>
       <r>   -4.1945    1.0000 </r>
       <r>   -4.1571    1.0000 </r>
       <r>   -4.1544    1.0000 </r>
       <r>   -4.1328    1.0000 </r>
       <r>   -4.1269    1.0000 </r>
       <r>   -4.1203    1.0000 </r>
       <r>   -4.0942    1.0000 </r>
       <r>   -4.0559    1.0000 </r>
       <r>   -4.0095    1.0000 </r>
       <r>   -3.9880    1.0000 </r>
       <r>   -3.9543    1.0000 </r>
       <r>   -3.8842    1.0000 </r>
       <r>   -3.8339    1.0000 </r>
       <r>   -3.7262    1.0000 </r>
       <r>   -3.6115    1.0000 </r>
       <r>   -3.5667    1.0000 </r>
       <r>   -3.5482    1.0000 </r>
       <r>   -3.5179    1.0000 </r>
       <r>   -3.5150    1.0000 </r>
       <r>   -3.4981    1.0000 </r>
       <r>   -3.4603    1.0000 </r>
       <r>   -3.3842    1.0000 </r>
       <r>   -3.3039    1.0000 </r>
       <r>   -3.2943    1.0000 </r>
       <r>   -3.2532    1.0000 </r>
       <r>   -3.2094    1.0000 </r>
       <r>   -3.1774    1.0000 </r>
       <r>   -3.1670    1.0000 </r>
       <r>   -3.1648    1.0000 </r>
       <r>   -3.1346    1.0000 </r>
       <r>   -3.0595    1.0000 </r>
       <r>   -3.0241    1.0000 </r>
       <r>   -3.0083    1.0000 </r>
       <r>   -2.9721    1.0000 </r>
       <r>   -2.8837    1.0000 </r>
       <r>   -2.8329    1.0000 </r>
       <r>   -2.6881    1.0000 </r>
       <r>   -2.5944    1.0000 </r>
       <r>   -2.0192    1.0000 </r>
       <r>   -2.0156    1.0000 </r>
       <r>   -1.9859    1.0000 </r>
       <r>   -1.9458    1.0000 </r>
       <r>   -1.7984    1.0000 </r>
       <r>   -1.7952    1.0000 </r>
       <r>   -1.2616    1.0000 </r>
       <r>   -1.2553    1.0000 </r>
       <r>    0.8437    1.0000 </r>
       <r>    0.9207    1.0000 </r>
       <r>    0.9324    1.0000 </r>
       <r>    0.9588    1.0000 </r>
       <r>    0.9747    1.0000 </r>
       <r>    0.9965    1.0000 </r>
       <r>    1.0241    1.0000 </r>
       <r>    1.0389    1.0000 </r>
       <r>    1.0693    1.0000 </r>
       <r>    1.0779    1.0000 </r>
       <r>    1.0833    1.0000 </r>
       <r>    1.1198    1.0000 </r>
       <r>    1.1313    1.0000 </r>
       <r>    1.1994    1.0000 </r>
       <r>    1.2071    1.0000 </r>
       <r>    1.2169    1.0000 </r>
       <r>    1.2485    1.0001 </r>
       <r>    1.2621    1.0001 </r>
       <r>    1.2738    1.0001 </r>
       <r>    1.2818    1.0001 </r>
       <r>    1.3112    1.0003 </r>
       <r>    1.3205    1.0004 </r>
       <r>    1.3223    1.0004 </r>
       <r>    1.3844    1.0018 </r>
       <r>    1.3900    1.0020 </r>
       <r>    1.4138    1.0032 </r>
       <r>    1.4397    1.0052 </r>
       <r>    1.5196    1.0173 </r>
       <r>    1.5530    1.0248 </r>
       <r>    1.6208    1.0355 </r>
       <r>    1.7035    0.9924 </r>
       <r>    1.7247    0.9611 </r>
       <r>    1.7746    0.8438 </r>
       <r>    1.8020    0.7538 </r>
       <r>    1.8424    0.5968 </r>
       <r>    1.8624    0.5126 </r>
       <r>    1.9135    0.3030 </r>
       <r>    1.9879    0.0745 </r>
       <r>    1.9900    0.0698 </r>
       <r>    2.0691   -0.0269 </r>
       <r>    2.1218   -0.0350 </r>
       <r>    2.1307   -0.0341 </r>
       <r>    2.1343   -0.0336 </r>
       <r>    2.1809   -0.0241 </r>
       <r>    2.2045   -0.0187 </r>
       <r>    2.2487   -0.0104 </r>
       <r>    2.2600   -0.0087 </r>
       <r>    2.2860   -0.0057 </r>
       <r>    2.3747   -0.0009 </r>
       <r>    2.4214   -0.0003 </r>
       <r>    2.4334   -0.0002 </r>
       <r>    2.4463   -0.0002 </r>
       <r>    2.4558   -0.0001 </r>
       <r>    2.4601   -0.0001 </r>
       <r>    2.5873   -0.0000 </r>
       <r>    2.9264   -0.0000 </r>
       <r>    3.1198   -0.0000 </r>
       <r>    3.2350   -0.0000 </r>
       <r>    3.3084   -0.0000 </r>
       <r>    3.3135   -0.0000 </r>
       <r>    4.0987   -0.0000 </r>
       <r>    4.5665   -0.0000 </r>
       <r>    4.9569   -0.0000 </r>
       <r>    6.2324   -0.0000 </r>
      </set>
     </set>
    </set>
   </array>
  </eigenvalues>
  <separator name="orbital magnetization" >
   <v name="MAGDIPOLOUT">      0.00000000      0.00000000      0.00000000</v>
  </separator>
  <dos>
   <i name="efermi">      1.86538694 </i>
   <total>
    <array>
     <dimension dim="1">gridpoints</dimension>
     <dimension dim="2">spin</dimension>
     <field>energy</field>
     <field>total</field>
     <field>integrated</field>
     <set>
      <set comment="spin 1">
       <r>   -24.8622     0.0000     0.0000 </r>
       <r>   -24.7519     0.0000     0.0000 </r>
       <r>   -24.6416     0.0000     0.0000 </r>
       <r>   -24.5313    -0.0000    -0.0000 </r>
       <r>   -24.4210    -0.0000    -0.0000 </r>
       <r>   -24.3106    -0.0000    -0.0000 </r>
       <r>   -24.2003    -0.0000    -0.0000 </r>
       <r>   -24.0900    -0.0000    -0.0000 </r>
       <r>   -23.9797    -0.0000    -0.0000 </r>
       <r>   -23.8694    -0.0000    -0.0000 </r>
       <r>   -23.7591    -0.0000    -0.0000 </r>
       <r>   -23.6487    -0.0000    -0.0000 </r>
       <r>   -23.5384    -0.0002    -0.0000 </r>
       <r>   -23.4281    -0.0042    -0.0005 </r>
       <r>   -23.3178    -0.0520    -0.0062 </r>
       <r>   -23.2075    -0.3027    -0.0396 </r>
       <r>   -23.0972    -0.6006    -0.1059 </r>
       <r>   -22.9869     1.0835     0.0137 </r>
       <r>   -22.8765     6.9019     0.7751 </r>
       <r>   -22.7662    14.9177     2.4207 </r>
       <r>   -22.6559    22.5511     4.9084 </r>
       <r>   -22.5456    25.0162     7.6681 </r>
       <r>   -22.4353    27.5869    10.7114 </r>
       <r>   -22.3250    51.1475    16.3537 </r>
       <r>   -22.2146    81.8568    25.3838 </r>
       <r>   -22.1043    81.6946    34.3960 </r>
       <r>   -21.9940    46.0280    39.4736 </r>
       <r>   -21.8837     9.6770    40.5411 </r>
       <r>   -21.7734    -2.6988    40.2434 </r>
       <r>   -21.6631    -1.8092    40.0438 </r>
       <r>   -21.5528    -0.3629    40.0037 </r>
       <r>   -21.4424    -0.0661    39.9965 </r>
       <r>   -21.3321    -0.2615    39.9676 </r>
       <r>   -21.2218    -0.7956    39.8798 </r>
       <r>   -21.1115     0.7227    39.9596 </r>
       <r>   -21.0012     8.6720    40.9162 </r>
       <r>   -20.8909    16.1236    42.6949 </r>
       <r>   -20.7805    11.0925    43.9186 </r>
       <r>   -20.6702     1.9848    44.1375 </r>
       <r>   -20.5599    -0.8094    44.0482 </r>
       <r>   -20.4496    -0.3768    44.0067 </r>
       <r>   -20.3393    -0.0564    44.0004 </r>
       <r>   -20.2290    -0.0039    44.0000 </r>
       <r>   -20.1187    -0.0001    44.0000 </r>
       <r>   -20.0083    -0.0000    44.0000 </r>
       <r>   -19.8980    -0.0000    44.0000 </r>
       <r>   -19.7877    -0.0000    44.0000 </r>
       <r>   -19.6774    -0.0000    44.0000 </r>
       <r>   -19.5671     0.0000    44.0000 </r>
       <r>   -19.4568     0.0000    44.0000 </r>
       <r>   -19.3464     0.0000    44.0000 </r>
       <r>   -19.2361     0.0000    44.0000 </r>
       <r>   -19.1258     0.0000    44.0000 </r>
       <r>   -19.0155     0.0000    44.0000 </r>
       <r>   -18.9052     0.0000    44.0000 </r>
       <r>   -18.7949     0.0000    44.0000 </r>
       <r>   -18.6846     0.0000    44.0000 </r>
       <r>   -18.5742     0.0000    44.0000 </r>
       <r>   -18.4639     0.0000    44.0000 </r>
       <r>   -18.3536     0.0000    44.0000 </r>
       <r>   -18.2433     0.0000    44.0000 </r>
       <r>   -18.1330    -0.0000    44.0000 </r>
       <r>   -18.0227    -0.0000    44.0000 </r>
       <r>   -17.9123    -0.0000    44.0000 </r>
       <r>   -17.8020    -0.0000    44.0000 </r>
       <r>   -17.6917    -0.0000    44.0000 </r>
       <r>   -17.5814    -0.0000    44.0000 </r>
       <r>   -17.4711    -0.0000    44.0000 </r>
       <r>   -17.3608    -0.0000    44.0000 </r>
       <r>   -17.2505    -0.0001    44.0000 </r>
       <r>   -17.1401    -0.0025    43.9997 </r>
       <r>   -17.0298    -0.0402    43.9953 </r>
       <r>   -16.9195    -0.3031    43.9618 </r>
       <r>   -16.8092    -0.8159    43.8718 </r>
       <r>   -16.6989     1.1708    44.0010 </r>
       <r>   -16.5886     9.6434    45.0648 </r>
       <r>   -16.4782    16.2270    46.8549 </r>
       <r>   -16.3679    10.1444    47.9740 </r>
       <r>   -16.2576     1.4308    48.1318 </r>
       <r>   -16.1473    -0.8193    48.0414 </r>
       <r>   -16.0370    -0.3273    48.0053 </r>
       <r>   -15.9267    -0.0452    48.0003 </r>
       <r>   -15.8164    -0.0029    48.0000 </r>
       <r>   -15.7060    -0.0001    48.0000 </r>
       <r>   -15.5957    -0.0000    48.0000 </r>
       <r>   -15.4854    -0.0000    48.0000 </r>
       <r>   -15.3751    -0.0000    48.0000 </r>
       <r>   -15.2648    -0.0000    48.0000 </r>
       <r>   -15.1545     0.0000    48.0000 </r>
       <r>   -15.0441     0.0000    48.0000 </r>
       <r>   -14.9338     0.0000    48.0000 </r>
       <r>   -14.8235     0.0000    48.0000 </r>
       <r>   -14.7132     0.0000    48.0000 </r>
       <r>   -14.6029     0.0000    48.0000 </r>
       <r>   -14.4926     0.0000    48.0000 </r>
       <r>   -14.3822     0.0000    48.0000 </r>
       <r>   -14.2719     0.0000    48.0000 </r>
       <r>   -14.1616     0.0000    48.0000 </r>
       <r>   -14.0513     0.0000    48.0000 </r>
       <r>   -13.9410     0.0000    48.0000 </r>
       <r>   -13.8307     0.0000    48.0000 </r>
       <r>   -13.7204     0.0000    48.0000 </r>
       <r>   -13.6100     0.0000    48.0000 </r>
       <r>   -13.4997     0.0000    48.0000 </r>
       <r>   -13.3894     0.0000    48.0000 </r>
       <r>   -13.2791     0.0000    48.0000 </r>
       <r>   -13.1688     0.0000    48.0000 </r>
       <r>   -13.0585     0.0000    48.0000 </r>
       <r>   -12.9481     0.0000    48.0000 </r>
       <r>   -12.8378     0.0000    48.0000 </r>
       <r>   -12.7275     0.0000    48.0000 </r>
       <r>   -12.6172     0.0000    48.0000 </r>
       <r>   -12.5069     0.0000    48.0000 </r>
       <r>   -12.3966     0.0000    48.0000 </r>
       <r>   -12.2863     0.0000    48.0000 </r>
       <r>   -12.1759     0.0000    48.0000 </r>
       <r>   -12.0656     0.0000    48.0000 </r>
       <r>   -11.9553     0.0000    48.0000 </r>
       <r>   -11.8450     0.0000    48.0000 </r>
       <r>   -11.7347     0.0000    48.0000 </r>
       <r>   -11.6244     0.0000    48.0000 </r>
       <r>   -11.5140     0.0000    48.0000 </r>
       <r>   -11.4037     0.0000    48.0000 </r>
       <r>   -11.2934     0.0000    48.0000 </r>
       <r>   -11.1831     0.0000    48.0000 </r>
       <r>   -11.0728     0.0000    48.0000 </r>
       <r>   -10.9625     0.0000    48.0000 </r>
       <r>   -10.8522     0.0000    48.0000 </r>
       <r>   -10.7418     0.0000    48.0000 </r>
       <r>   -10.6315     0.0000    48.0000 </r>
       <r>   -10.5212     0.0000    48.0000 </r>
       <r>   -10.4109     0.0000    48.0000 </r>
       <r>   -10.3006     0.0000    48.0000 </r>
       <r>   -10.1903     0.0000    48.0000 </r>
       <r>   -10.0799     0.0000    48.0000 </r>
       <r>    -9.9696     0.0000    48.0000 </r>
       <r>    -9.8593     0.0000    48.0000 </r>
       <r>    -9.7490     0.0000    48.0000 </r>
       <r>    -9.6387     0.0000    48.0000 </r>
       <r>    -9.5284     0.0000    48.0000 </r>
       <r>    -9.4181     0.0000    48.0000 </r>
       <r>    -9.3077     0.0000    48.0000 </r>
       <r>    -9.1974     0.0000    48.0000 </r>
       <r>    -9.0871     0.0000    48.0000 </r>
       <r>    -8.9768     0.0000    48.0000 </r>
       <r>    -8.8665     0.0000    48.0000 </r>
       <r>    -8.7562     0.0000    48.0000 </r>
       <r>    -8.6458     0.0000    48.0000 </r>
       <r>    -8.5355     0.0000    48.0000 </r>
       <r>    -8.4252     0.0000    48.0000 </r>
       <r>    -8.3149     0.0000    48.0000 </r>
       <r>    -8.2046     0.0000    48.0000 </r>
       <r>    -8.0943     0.0000    48.0000 </r>
       <r>    -7.9840     0.0000    48.0000 </r>
       <r>    -7.8736    -0.0000    48.0000 </r>
       <r>    -7.7633    -0.0000    48.0000 </r>
       <r>    -7.6530    -0.0000    48.0000 </r>
       <r>    -7.5427    -0.0000    48.0000 </r>
       <r>    -7.4324    -0.0000    48.0000 </r>
       <r>    -7.3221    -0.0000    48.0000 </r>
       <r>    -7.2117    -0.0000    48.0000 </r>
       <r>    -7.1014    -0.0000    48.0000 </r>
       <r>    -6.9911    -0.0000    48.0000 </r>
       <r>    -6.8808    -0.0001    48.0000 </r>
       <r>    -6.7705    -0.0030    47.9997 </r>
       <r>    -6.6602    -0.0410    47.9951 </r>
       <r>    -6.5499    -0.2703    47.9653 </r>
       <r>    -6.4395    -0.6468    47.8940 </r>
       <r>    -6.3292     0.9197    47.9954 </r>
       <r>    -6.2189     7.3150    48.8024 </r>
       <r>    -6.1086    14.2357    50.3728 </r>
       <r>    -5.9983    16.2161    52.1617 </r>
       <r>    -5.8880    16.8296    54.0182 </r>
       <r>    -5.7776    15.7668    55.7576 </r>
       <r>    -5.6673    11.9215    57.0727 </r>
       <r>    -5.5570    12.4378    58.4448 </r>
       <r>    -5.4467    20.7776    60.7369 </r>
       <r>    -5.3364    25.7542    63.5780 </r>
       <r>    -5.2261    20.1495    65.8008 </r>
       <r>    -5.1158    12.2636    67.1536 </r>
       <r>    -5.0054     5.9392    67.8088 </r>
       <r>    -4.8951     2.9011    68.1288 </r>
       <r>    -4.7848     7.3152    68.9358 </r>
       <r>    -4.6745    14.9638    70.5866 </r>
       <r>    -4.5642    24.3283    73.2703 </r>
       <r>    -4.4539    44.8150    78.2141 </r>
       <r>    -4.3435    75.3843    86.5302 </r>
       <r>    -4.2332    97.7071    97.3088 </r>
       <r>    -4.1229    99.7885   108.3170 </r>
       <r>    -4.0126    79.6828   117.1072 </r>
       <r>    -3.9023    49.3980   122.5566 </r>
       <r>    -3.7920    27.1100   125.5472 </r>
       <r>    -3.6817    23.5452   128.1446 </r>
       <r>    -3.5713    40.9929   132.6668 </r>
       <r>    -3.4610    55.1311   138.7486 </r>
       <r>    -3.3507    51.3798   144.4166 </r>
       <r>    -3.2404    54.2635   150.4027 </r>
       <r>    -3.1301    63.4870   157.4063 </r>
       <r>    -3.0198    58.3077   163.8385 </r>
       <r>    -2.9094    42.1091   168.4838 </r>
       <r>    -2.7991    26.6312   171.4216 </r>
       <r>    -2.6888    18.4410   173.4559 </r>
       <r>    -2.5785    14.7745   175.0858 </r>
       <r>    -2.4682     7.9027   175.9576 </r>
       <r>    -2.3579     0.4279   176.0048 </r>
       <r>    -2.2476    -2.1478   175.7679 </r>
       <r>    -2.1372     4.4395   176.2576 </r>
       <r>    -2.0269    22.4502   178.7342 </r>
       <r>    -1.9166    35.0788   182.6039 </r>
       <r>    -1.8063    29.8598   185.8979 </r>
       <r>    -1.6960    16.2800   187.6939 </r>
       <r>    -1.5857     3.6586   188.0975 </r>
       <r>    -1.4753    -1.1388   187.9718 </r>
       <r>    -1.3650     4.5082   188.4692 </r>
       <r>    -1.2547    14.4677   190.0652 </r>
       <r>    -1.1444    14.1360   191.6246 </r>
       <r>    -1.0341     4.6190   192.1341 </r>
       <r>    -0.9238    -0.5009   192.0789 </r>
       <r>    -0.8135    -0.5838   192.0145 </r>
       <r>    -0.7031    -0.1201   192.0012 </r>
       <r>    -0.5928    -0.0107   192.0001 </r>
       <r>    -0.4825    -0.0005   192.0000 </r>
       <r>    -0.3722    -0.0000   192.0000 </r>
       <r>    -0.2619    -0.0000   192.0000 </r>
       <r>    -0.1516    -0.0000   192.0000 </r>
       <r>    -0.0412    -0.0000   192.0000 </r>
       <r>     0.0691    -0.0000   192.0000 </r>
       <r>     0.1794    -0.0003   192.0000 </r>
       <r>     0.2897    -0.0071   191.9992 </r>
       <r>     0.4000    -0.0951   191.9887 </r>
       <r>     0.5103    -0.6585   191.9160 </r>
       <r>     0.6206    -2.0839   191.6862 </r>
       <r>     0.7310    -0.4959   191.6315 </r>
       <r>     0.8413    16.3696   193.4373 </r>
       <r>     0.9516    52.4498   199.2233 </r>
       <r>     1.0619    84.4604   208.5406 </r>
       <r>     1.1722    96.6995   219.2080 </r>
       <r>     1.2825   100.4751   230.2920 </r>
       <r>     1.3929    89.4911   240.1642 </r>
       <r>     1.5032    59.7744   246.7583 </r>
       <r>     1.6135    37.8775   250.9367 </r>
       <r>     1.7238    38.6837   255.2042 </r>
       <r>     1.8341    47.6187   260.4572 </r>
       <r>     1.9444    48.4937   265.8068 </r>
       <r>     2.0547    49.7838   271.2987 </r>
       <r>     2.1651    59.2213   277.8318 </r>
       <r>     2.2754    63.4362   284.8298 </r>
       <r>     2.3857    61.5124   291.6155 </r>
       <r>     2.4960    54.9055   297.6724 </r>
       <r>     2.6063    32.3867   301.2452 </r>
       <r>     2.7166     8.5527   302.1887 </r>
       <r>     2.8270     1.6193   302.3673 </r>
       <r>     2.9373     5.8040   303.0076 </r>
       <r>     3.0476     9.9991   304.1106 </r>
       <r>     3.1579    15.8806   305.8625 </r>
       <r>     3.2682    24.4194   308.5564 </r>
       <r>     3.3785    22.9004   311.0826 </r>
       <r>     3.4888     9.5325   312.1342 </r>
       <r>     3.5992     0.1363   312.1492 </r>
       <r>     3.7095    -1.1892   312.0181 </r>
       <r>     3.8198    -0.7062   311.9402 </r>
       <r>     3.9301     0.5394   311.9997 </r>
       <r>     4.0404     4.7884   312.5279 </r>
       <r>     4.1507     8.0133   313.4119 </r>
       <r>     4.2611     4.7249   313.9331 </r>
       <r>     4.3714     0.7960   314.0209 </r>
       <r>     4.4817     3.1241   314.3656 </r>
       <r>     4.5920     7.4676   315.1894 </r>
       <r>     4.7023     5.8486   315.8346 </r>
       <r>     4.8126     2.7400   316.1368 </r>
       <r>     4.9229     5.5381   316.7478 </r>
       <r>     5.0333     7.7430   317.6019 </r>
       <r>     5.1436     3.9161   318.0339 </r>
       <r>     5.2539     0.2058   318.0566 </r>
       <r>     5.3642    -0.3849   318.0142 </r>
       <r>     5.4745    -0.1145   318.0015 </r>
       <r>     5.5848    -0.0137   318.0000 </r>
       <r>     5.6952    -0.0091   317.9990 </r>
       <r>     5.8055    -0.0828   317.9899 </r>
       <r>     5.9158    -0.3408   317.9523 </r>
       <r>     6.0261    -0.0771   317.9438 </r>
       <r>     6.1364     3.0676   318.2822 </r>
       <r>     6.2467     7.6023   319.1209 </r>
       <r>     6.3570     6.7029   319.8603 </r>
       <r>     6.4674     1.9018   320.0701 </r>
       <r>     6.5777    -0.3197   320.0348 </r>
       <r>     6.6880    -0.2623   320.0059 </r>
       <r>     6.7983    -0.0492   320.0005 </r>
       <r>     6.9086    -0.0041   320.0000 </r>
       <r>     7.0189    -0.0002   320.0000 </r>
       <r>     7.1293    -0.0000   320.0000 </r>
       <r>     7.2396    -0.0000   320.0000 </r>
       <r>     7.3499    -0.0000   320.0000 </r>
       <r>     7.4602    -0.0000   320.0000 </r>
       <r>     7.5705     0.0000   320.0000 </r>
       <r>     7.6808     0.0000   320.0000 </r>
       <r>     7.7912     0.0000   320.0000 </r>
       <r>     7.9015     0.0000   320.0000 </r>
       <r>     8.0118     0.0000   320.0000 </r>
       <r>     8.1221     0.0000   320.0000 </r>
       <r>     8.2324     0.0000   320.0000 </r>
      </set>
     </set>
    </array>
   </total>
  </dos>
 </calculation>
 <structure name="finalpos" >
  <crystal>
   <varray name="basis" >
    <v>       3.25262800       0.00000000       0.00000000 </v>
    <v>       0.00000000      20.54938400       0.00000000 </v>
    <v>       0.00000000       0.00000000       6.79221100 </v>
   </varray>
   <i name="volume">    453.98799923 </i>
   <varray name="rec_basis" >
    <v>       0.30744370       0.00000000       0.00000000 </v>
    <v>       0.00000000       0.04866326       0.00000000 </v>
    <v>       0.00000000       0.00000000       0.14722746 </v>
   </varray>
  </crystal>
  <varray name="positions" >
   <v>       0.00000000       0.16607300       0.50139100 </v>
   <v>       0.00000000       0.83328100       0.50139100 </v>
   <v>       0.99530500       0.66671900       0.00139100 </v>
   <v>       0.00000000       0.33328100       0.00800900 </v>
   <v>       0.50000000       0.16602100       0.00000400 </v>
   <v>       0.49801200       0.83397900       0.00000400 </v>
   <v>       0.50000000       0.66602100       0.49596900 </v>
   <v>       0.50000000       0.33397900       0.50000400 </v>
   <v>       0.00000000       0.00000000       0.01216200 </v>
   <v>       0.00000000       0.50065200       0.51216200 </v>
   <v>       0.50000000       0.00000000       0.47240000 </v>
   <v>       0.50000000       0.50000000       0.97240000 </v>
   <v>       0.00000000       0.00000000       0.31436200 </v>
   <v>       0.00000000       0.50000000       0.81436200 </v>
   <v>       0.00000000       0.16816900       0.20329900 </v>
   <v>       0.00529800       0.83183100       0.20329900 </v>
   <v>       0.00000000       0.66816900       0.70329900 </v>
   <v>       0.99746600       0.33090000       0.69494100 </v>
   <v>       0.00000000       0.16838200       0.79934600 </v>
   <v>       0.00000000       0.83161800       0.79934600 </v>
   <v>       0.00000000       0.66838200       0.29934600 </v>
   <v>       0.00000000       0.33161800       0.29934600 </v>
   <v>       0.50000000       0.06837200       0.99633700 </v>
   <v>       0.50000000       0.93162800       0.99633700 </v>
   <v>       0.49804300       0.56837200       0.49633700 </v>
   <v>       0.50000000       0.43162800       0.49633700 </v>
   <v>       0.50000000       0.09818400       0.50567900 </v>
   <v>       0.50000000       0.90270000       0.50567900 </v>
   <v>       0.50000000       0.59818400       0.00567900 </v>
   <v>       0.50000000       0.40181600       0.00567900 </v>
   <v>       0.50000000       0.23502700       0.50152500 </v>
   <v>       0.50000000       0.76594000       0.50152500 </v>
   <v>       0.50000000       0.72487400       0.00152500 </v>
   <v>       0.50000000       0.26804600       0.00152500 </v>
   <v>       0.00000000       0.00000000       0.69474100 </v>
   <v>       0.00000000       0.50000000       0.19474100 </v>
  </varray>
 </structure>
</modeling>
