<?xml version="1.0" encoding="ISO-8859-1"?>
<modeling>
 <generator>
  <i name="program" type="string">vasp </i>
  <i name="version" type="string">5.3.5  </i>
  <i name="subversion" type="string">31Mar14 (build Aug 29 2014 19:41:47) complex                          parallel </i>
  <i name="platform" type="string">LinuxIFC </i>
  <i name="date" type="string">2019 04 11 </i>
  <i name="time" type="string">12:56:10 </i>
 </generator>
 <incar>
  <i type="string" name="SYSTEM"> Fe4OF7_var_16</i>
  <i type="int" name="ISTART">     0</i>
  <i type="string" name="PREC">normal</i>
  <i type="string" name="ALGO"> VeryFast</i>
  <i type="int" name="ISPIN">     1</i>
  <i type="int" name="ICHARG">     2</i>
  <i type="int" name="NELM">   300</i>
  <i type="int" name="ISYM">     0</i>
  <i type="logical" name="LWAVE"> F  </i>
  <i type="int" name="NELM">   300</i>
 </incar>
 <kpoints>
  <generation param="Gamma">
   <v type="int" name="divisions">       1        1        1 </v>
   <v name="usershift">      0.00000000       0.00000000       0.00000000 </v>
   <v name="genvec1">      1.00000000       0.00000000       0.00000000 </v>
   <v name="genvec2">      0.00000000       1.00000000       0.00000000 </v>
   <v name="genvec3">     -0.00000000       0.00000000       1.00000000 </v>
   <v name="shift">      0.00000000       0.00000000       0.00000000 </v>
  </generation>
  <varray name="kpointlist" >
   <v>       0.00000000       0.00000000       0.00000000 </v>
  </varray>
  <varray name="weights" >
   <v>       1.00000000 </v>
  </varray>
 </kpoints>
 <parameters>
  <separator name="general" >
   <i type="string" name="SYSTEM">Fe4OF7_var_16</i>
   <i type="logical" name="LCOMPAT"> F  </i>
  </separator>
  <separator name="electronic" >
   <i type="string" name="PREC">normal</i>
   <i name="ENMAX">    400.00000000</i>
   <i name="ENAUG">    613.61400000</i>
   <i name="EDIFF">      0.00010000</i>
   <i type="int" name="IALGO">    48</i>
   <i type="int" name="IWAVPR">    10</i>
   <i type="int" name="NBANDS">   104</i>
   <i name="NELECT">    174.00000000</i>
   <i type="int" name="TURBO">     0</i>
   <i type="int" name="IRESTART">     0</i>
   <i type="int" name="NREBOOT">     0</i>
   <i type="int" name="NMIN">     0</i>
   <i name="EREF">      0.00000000</i>
   <separator name="electronic smearing" >
    <i type="int" name="ISMEAR">     1</i>
    <i name="SIGMA">      0.20000000</i>
    <i name="KSPACING">      0.50000000</i>
    <i type="logical" name="KGAMMA"> T  </i>
   </separator>
   <separator name="electronic projectors" >
    <i type="logical" name="LREAL"> F  </i>
    <v name="ROPT">      0.00000000      0.00000000      0.00000000</v>
    <i type="int" name="LMAXPAW">  -100</i>
    <i type="int" name="LMAXMIX">     2</i>
    <i type="logical" name="NLSPLINE"> F  </i>
   </separator>
   <separator name="electronic startup" >
    <i type="int" name="ISTART">     0</i>
    <i type="int" name="ICHARG">     2</i>
    <i type="int" name="INIWAV">     1</i>
   </separator>
   <separator name="electronic spin" >
    <i type="int" name="ISPIN">     1</i>
    <i type="logical" name="LNONCOLLINEAR"> F  </i>
    <v name="MAGMOM">      1.00000000      1.00000000      1.00000000      1.00000000      1.00000000      1.00000000      1.00000000      1.00000000      1.00000000      1.00000000      1.00000000      1.00000000      1.00000000      1.00000000      1.00000000      1.00000000      1.00000000      1.00000000      1.00000000      1.00000000
      1.00000000      1.00000000      1.00000000      1.00000000</v>
    <i name="NUPDOWN">     -1.00000000</i>
    <i type="logical" name="LSORBIT"> F  </i>
    <v name="SAXIS">      0.00000000      0.00000000      1.00000000</v>
    <i type="logical" name="LSPIRAL"> F  </i>
    <v name="QSPIRAL">      0.00000000      0.00000000      0.00000000</v>
    <i type="logical" name="LZEROZ"> F  </i>
   </separator>
   <separator name="electronic exchange-correlation" >
    <i type="logical" name="LASPH"> F  </i>
    <i type="logical" name="LMETAGGA"> F  </i>
   </separator>
   <separator name="electronic convergence" >
    <i type="int" name="NELM">   300</i>
    <i type="int" name="NELMDL">   -12</i>
    <i type="int" name="NELMIN">     2</i>
    <i name="ENINI">    400.00000000</i>
    <separator name="electronic convergence detail" >
     <i type="logical" name="LDIAG"> T  </i>
     <i type="logical" name="LSUBROT"> F  </i>
     <i name="WEIMIN">      0.00000000</i>
     <i name="EBREAK">      0.00000024</i>
     <i name="DEPER">      0.30000000</i>
     <i type="int" name="NRMM">     4</i>
     <i name="TIME">      0.40000000</i>
    </separator>
   </separator>
   <separator name="electronic mixer" >
    <i name="AMIX">      0.40000000</i>
    <i name="BMIX">      1.00000000</i>
    <i name="AMIN">      0.10000000</i>
    <i name="AMIX_MAG">      1.60000000</i>
    <i name="BMIX_MAG">      1.00000000</i>
    <separator name="electronic mixer details" >
     <i type="int" name="IMIX">     4</i>
     <i type="int" name="MAXMIX">   -45</i>
     <i name="WC">    100.00000000</i>
     <i type="int" name="INIMIX">     1</i>
     <i type="int" name="MIXPRE">     1</i>
     <i type="int" name="MREMOVE">     5</i>
    </separator>
   </separator>
   <separator name="electronic dipolcorrection" >
    <i type="logical" name="LDIPOL"> F  </i>
    <i type="logical" name="LMONO"> F  </i>
    <i type="int" name="IDIPOL">     0</i>
    <i name="EPSILON">      1.00000000</i>
    <v name="DIPOL">   -100.00000000   -100.00000000   -100.00000000</v>
    <i name="EFIELD">      0.00000000</i>
   </separator>
  </separator>
  <separator name="grids" >
   <i type="int" name="NGX">    28</i>
   <i type="int" name="NGY">    24</i>
   <i type="int" name="NGZ">    54</i>
   <i type="int" name="NGXF">    56</i>
   <i type="int" name="NGYF">    48</i>
   <i type="int" name="NGZF">   108</i>
   <i type="logical" name="ADDGRID"> F  </i>
  </separator>
  <separator name="ionic" >
   <i type="int" name="NSW">     0</i>
   <i type="int" name="IBRION">    -1</i>
   <i type="int" name="ISIF">     2</i>
   <i name="PSTRESS">      0.00000000</i>
   <i name="EDIFFG">      0.00100000</i>
   <i type="int" name="NFREE">     0</i>
   <i name="POTIM">      0.50000000</i>
   <i name="SMASS">     -3.00000000</i>
   <i name="SCALEE">      1.00000000</i>
  </separator>
  <separator name="ionic md" >
   <i name="TEBEG">      0.00010000</i>
   <i name="TEEND">      0.00010000</i>
   <i type="int" name="NBLOCK">     1</i>
   <i type="int" name="KBLOCK">     1</i>
   <i type="int" name="NPACO">   256</i>
   <i name="APACO">     16.00000000</i>
  </separator>
  <separator name="symmetry" >
   <i type="int" name="ISYM">     0</i>
   <i name="SYMPREC">      0.00001000</i>
  </separator>
  <separator name="dos" >
   <i type="logical" name="LORBIT"> F  </i>
   <v name="RWIGS">     -1.00000000     -1.00000000     -1.00000000</v>
   <i type="int" name="NEDOS">   301</i>
   <i name="EMIN">     10.00000000</i>
   <i name="EMAX">    -10.00000000</i>
   <i name="EFERMI">      0.00000000</i>
  </separator>
  <separator name="writing" >
   <i type="int" name="NWRITE">     2</i>
   <i type="logical" name="LWAVE"> F  </i>
   <i type="logical" name="LCHARG"> T  </i>
   <i type="logical" name="LPARD"> F  </i>
   <i type="logical" name="LVTOT"> F  </i>
   <i type="logical" name="LVHAR"> F  </i>
   <i type="logical" name="LELF"> F  </i>
   <i type="logical" name="LOPTICS"> F  </i>
   <v name="STM">      0.00000000      0.00000000      0.00000000      0.00000000      0.00000000      0.00000000      0.00000000</v>
  </separator>
  <separator name="performance" >
   <i type="int" name="NPAR">     4</i>
   <i type="int" name="NSIM">     4</i>
   <i type="int" name="NBLK">    -1</i>
   <i type="logical" name="LPLANE"> T  </i>
   <i type="logical" name="LSCALAPACK"> T  </i>
   <i type="logical" name="LSCAAWARE"> F  </i>
   <i type="logical" name="LSCALU"> F  </i>
   <i type="logical" name="LASYNC"> F  </i>
   <i type="logical" name="LORBITALREAL"> F  </i>
  </separator>
  <separator name="miscellaneous" >
   <i type="int" name="IDIOT">     3</i>
   <i type="logical" name="LMUSIC"> F  </i>
   <v name="POMASS">     55.84700000     16.00000000     18.99800000</v>
   <v name="DARWINR">      0.00000000      0.00000000      0.00000000</v>
   <v name="DARWINV">      1.00000000      1.00000000      1.00000000</v>
   <i type="logical" name="LCORR"> T  </i>
  </separator>
  <i type="logical" name="GGA_COMPAT"> T  </i>
  <i type="logical" name="LBERRY"> F  </i>
  <i type="int" name="ICORELEVEL">     0</i>
  <i type="logical" name="LDAU"> F  </i>
  <i type="int" name="I_CONSTRAINED_M">     0</i>
  <separator name="electronic exchange-correlation" >
   <i type="string" name="GGA">--</i>
   <i type="int" name="VOSKOWN">     0</i>
   <i type="logical" name="LHFCALC"> F  </i>
   <i type="string" name="PRECFOCK"></i>
   <i type="logical" name="LSYMGRAD"> F  </i>
   <i type="logical" name="LHFONE"> F  </i>
   <i type="logical" name="LRHFCALC"> F  </i>
   <i type="logical" name="LTHOMAS"> F  </i>
   <i type="logical" name="LMODELHF"> F  </i>
   <i name="ENCUT4O">     -1.00000000</i>
   <i type="int" name="EXXOEP">     0</i>
   <i type="int" name="FOURORBIT">     0</i>
   <i name="AEXX">      0.00000000</i>
   <i name="HFALPHA">      0.00000000</i>
   <i name="MCALPHA">      0.00000000</i>
   <i name="ALDAX">      1.00000000</i>
   <i name="AGGAX">      1.00000000</i>
   <i name="ALDAC">      1.00000000</i>
   <i name="AGGAC">      1.00000000</i>
   <i type="int" name="NKREDX">     1</i>
   <i type="int" name="NKREDY">     1</i>
   <i type="int" name="NKREDZ">     1</i>
   <i type="logical" name="SHIFTRED"> F  </i>
   <i type="logical" name="ODDONLY"> F  </i>
   <i type="logical" name="EVENONLY"> F  </i>
   <i type="int" name="LMAXFOCK">     0</i>
   <i type="int" name="NMAXFOCKAE">     0</i>
   <i type="logical" name="LFOCKAEDFT"> F  </i>
   <i name="HFSCREEN">      0.00000000</i>
   <i name="HFSCREENC">      0.00000000</i>
   <i type="int" name="NBANDSGWLOW">     0</i>
  </separator>
  <separator name="vdW DFT" >
   <i type="logical" name="LUSE_VDW"> F  </i>
   <i name="Zab_VDW">     -0.84910000</i>
   <i name="PARAM1">      0.12340000</i>
   <i name="PARAM2">      1.00000000</i>
   <i name="PARAM3">      0.00000000</i>
  </separator>
  <separator name="model GW" >
   <i type="int" name="MODEL_GW">     0</i>
   <i name="MODEL_EPS0">      7.46882445</i>
   <i name="MODEL_ALPHA">      1.00000000</i>
  </separator>
  <separator name="linear response parameters" >
   <i type="logical" name="LEPSILON"> F  </i>
   <i type="logical" name="LRPA"> F  </i>
   <i type="logical" name="LNABLA"> F  </i>
   <i type="logical" name="LVEL"> F  </i>
   <i type="int" name="KINTER">     0</i>
   <i name="CSHIFT">      0.10000000</i>
   <i name="OMEGAMAX">     -1.00000000</i>
   <i name="DEG_THRESHOLD">      0.00200000</i>
  </separator>
  <separator name="orbital magnetization" >
   <i type="logical" name="NUCIND"> F  </i>
   <v name="MAGPOS">      0.00000000      0.00000000      0.00000000</v>
   <i type="logical" name="LNICSALL"> T  </i>
   <i type="logical" name="ORBITALMAG"> F  </i>
   <i type="logical" name="LMAGBLOCH"> F  </i>
   <i type="logical" name="LCHIMAG"> F  </i>
   <i type="logical" name="LGAUGE"> T  </i>
   <i type="int" name="MAGATOM">     0</i>
   <v name="MAGDIPOL">      0.00000000      0.00000000      0.00000000</v>
   <v name="AVECCONST">      0.00000000      0.00000000      0.00000000</v>
  </separator>
  <separator name="response functions" >
   <i type="logical" name="LADDER"> F  </i>
   <i type="logical" name="LFXC"> F  </i>
   <i type="logical" name="LHARTREE"> T  </i>
   <i type="int" name="IBSE">     0</i>
   <i type="logical" name="LTCTE"> F  </i>
   <i type="logical" name="LTETE"> F  </i>
   <i type="logical" name="LTRIPLET"> F  </i>
   <i type="logical" name="LFXCEPS"> F  </i>
   <i type="logical" name="LFXHEG"> F  </i>
   <i type="logical" name="L2ORDER"> F  </i>
   <i type="logical" name="LUSEW"> F  </i>
   <i name="ENCUTGW">     -2.00000000</i>
   <i name="ENCUTGWSOFT">     -2.00000000</i>
   <i name="ENCUTLF">     -1.00000000</i>
   <i type="int" name="LMAXMP2">    -1</i>
   <i name="SCISSOR">      0.00000000</i>
   <i type="int" name="NOMEGA">     0</i>
   <i type="int" name="NOMEGAR">     0</i>
   <i type="int" name="NBANDSGW">    -1</i>
   <i type="int" name="NBANDSO">    -1</i>
   <i type="int" name="NBANDSV">    -1</i>
   <i type="int" name="NELM">   300</i>
   <i type="int" name="DIM">     3</i>
   <i type="int" name="ANTIRES">     0</i>
   <i name="OMEGAMAX">    -30.00000000</i>
   <i name="OMEGAMIN">    -30.00000000</i>
   <i name="OMEGATL">   -200.00000000</i>
   <i type="int" name="OMEGAGRID">     0</i>
   <i name="CSHIFT">     -0.10000000</i>
   <i type="logical" name="SELFENERGY"> F  </i>
   <i type="logical" name="LSPECTRAL"> F  </i>
   <i type="logical" name="ODDONLYGW"> F  </i>
   <i type="logical" name="EVENONLYGW"> F  </i>
   <i type="int" name="NKREDLFX">     1</i>
   <i type="int" name="NKREDLFY">     1</i>
   <i type="int" name="NKREDLFZ">     1</i>
   <i type="int" name="MAXMEM">  1800</i>
   <i type="int" name="TELESCOPE">     0</i>
   <i type="int" name="TAUPAR">     1</i>
  </separator>
  <separator name="External order field" >
   <i name="OFIELD_KAPPA">      0.00000000</i>
   <v name="OFIELD_K">      0.00000000      0.00000000      0.00000000</v>
   <i name="OFIELD_Q6_NEAR">      0.00000000</i>
   <i name="OFIELD_Q6_FAR">      0.00000000</i>
   <i name="OFIELD_A">      0.00000000</i>
  </separator>
 </parameters>
 <atominfo>
  <atoms>      24 </atoms>
  <types>       3 </types>
  <array name="atoms" >
   <dimension dim="1">ion</dimension>
   <field type="string">element</field>
   <field type="int">atomtype</field>
   <set>
    <rc><c>Fe</c><c>   1</c></rc>
    <rc><c>Fe</c><c>   1</c></rc>
    <rc><c>Fe</c><c>   1</c></rc>
    <rc><c>Fe</c><c>   1</c></rc>
    <rc><c>Fe</c><c>   1</c></rc>
    <rc><c>Fe</c><c>   1</c></rc>
    <rc><c>Fe</c><c>   1</c></rc>
    <rc><c>Fe</c><c>   1</c></rc>
    <rc><c>O </c><c>   2</c></rc>
    <rc><c>O </c><c>   2</c></rc>
    <rc><c>F </c><c>   3</c></rc>
    <rc><c>F </c><c>   3</c></rc>
    <rc><c>F </c><c>   3</c></rc>
    <rc><c>F </c><c>   3</c></rc>
    <rc><c>F </c><c>   3</c></rc>
    <rc><c>F </c><c>   3</c></rc>
    <rc><c>F </c><c>   3</c></rc>
    <rc><c>F </c><c>   3</c></rc>
    <rc><c>F </c><c>   3</c></rc>
    <rc><c>F </c><c>   3</c></rc>
    <rc><c>F </c><c>   3</c></rc>
    <rc><c>F </c><c>   3</c></rc>
    <rc><c>F </c><c>   3</c></rc>
    <rc><c>F </c><c>   3</c></rc>
   </set>
  </array>
  <array name="atomtypes" >
   <dimension dim="1">type</dimension>
   <field type="int">atomspertype</field>
   <field type="string">element</field>
   <field>mass</field>
   <field>valence</field>
   <field type="string">pseudopotential</field>
   <set>
    <rc><c>   8</c><c>Fe</c><c>     55.84700000</c><c>      8.00000000</c><c>  PAW_PBE Fe 06Sep2000                  </c></rc>
    <rc><c>   2</c><c>O </c><c>     16.00000000</c><c>      6.00000000</c><c>  PAW_PBE O 08Apr2002                   </c></rc>
    <rc><c>  14</c><c>F </c><c>     18.99800000</c><c>      7.00000000</c><c>  PAW_PBE F 08Apr2002                   </c></rc>
   </set>
  </array>
 </atominfo>
 <structure name="initialpos" >
  <crystal>
   <varray name="basis" >
    <v>       5.73591900       0.00000000      -0.79026700 </v>
    <v>       0.00000000       4.78544200       0.03244500 </v>
    <v>       0.00000000       0.00000000      10.88396600 </v>
   </varray>
   <i name="volume">    298.75297805 </i>
   <varray name="rec_basis" >
    <v>       0.17433998       0.00000000       0.00000000 </v>
    <v>       0.00000000       0.20896711       0.00000000 </v>
    <v>       0.01265854      -0.00062293       0.09187827 </v>
   </varray>
  </crystal>
  <varray name="positions" >
   <v>       0.24699400       0.24850600       0.74623300 </v>
   <v>       0.24699400       0.75149400       0.24623300 </v>
   <v>       0.51485700       0.24497600       0.49879200 </v>
   <v>       0.51485700       0.75502400       0.99879200 </v>
   <v>       0.75545000       0.22967900       0.25946000 </v>
   <v>       0.75373900       0.77103800       0.76486200 </v>
   <v>       0.99045900       0.24137200       0.99652900 </v>
   <v>       0.99592900       0.75862800       0.49652900 </v>
   <v>       0.77857200       0.05847800       0.41725200 </v>
   <v>       0.77857200       0.94152200       0.91725200 </v>
   <v>       0.01370000       0.05755600       0.18278600 </v>
   <v>       0.01370000       0.94244400       0.68278600 </v>
   <v>       0.22224900       0.44944100       0.57080400 </v>
   <v>       0.21784000       0.55055900       0.07080400 </v>
   <v>       0.27923300       0.05174700       0.92203700 </v>
   <v>       0.27923300       0.94825300       0.42203700 </v>
   <v>       0.48187500       0.45353000       0.31584000 </v>
   <v>       0.48187500       0.54647000       0.82311600 </v>
   <v>       0.52253600       0.03560000       0.67416600 </v>
   <v>       0.52253600       0.96151400       0.17416600 </v>
   <v>       0.71596900       0.44302000       0.09109400 </v>
   <v>       0.72235300       0.55698000       0.59109400 </v>
   <v>       0.97343300       0.45650500       0.81960400 </v>
   <v>       0.97343300       0.54349500       0.31960400 </v>
  </varray>
 </structure>
 <calculation>
  <scstep>
   <time name="diag">    0.06    0.06</time>
   <time name="diis">    0.12    0.22</time>
   <time name="orth">    0.02    0.04</time>
   <time name="total">    0.29    0.48</time>
   <energy>
    <i name="alphaZ">    634.09262729 </i>
    <i name="ewald"> -10613.77772960 </i>
    <i name="hartreedc">  -4389.16339918 </i>
    <i name="XCdc">    595.47185415 </i>
    <i name="pawpsdc">  12680.77512887 </i>
    <i name="pawaedc"> -12817.41364524 </i>
    <i name="eentropy">     -0.04264462 </i>
    <i name="bandstr">   1177.71721503 </i>
    <i name="atom">  14851.27451460 </i>
    <i name="e_fr_energy">   2118.93392129 </i>
    <i name="e_wo_entrp">   2118.97656591 </i>
    <i name="e_0_energy">   2118.94813616 </i>
   </energy>
  </scstep>
  <scstep>
   <time name="diag">    0.10    0.16</time>
   <time name="diis">    0.12    0.22</time>
   <time name="orth">    0.24    0.39</time>
   <time name="total">    0.47    0.79</time>
   <energy>
    <i name="e_fr_energy">    669.23012864 </i>
    <i name="e_wo_entrp">    669.18347839 </i>
    <i name="e_0_energy">    669.21457856 </i>
   </energy>
  </scstep>
  <scstep>
   <time name="diag">    0.13    0.18</time>
   <time name="diis">    0.18    0.20</time>
   <time name="orth">    0.02    0.05</time>
   <time name="total">    0.33    0.43</time>
   <energy>
    <i name="e_fr_energy">    235.90590809 </i>
    <i name="e_wo_entrp">    235.94586840 </i>
    <i name="e_0_energy">    235.91922820 </i>
   </energy>
  </scstep>
  <scstep>
   <time name="diag">    0.05    0.07</time>
   <time name="diis">    0.13    0.19</time>
   <time name="orth">    0.01    0.01</time>
   <time name="total">    0.20    0.29</time>
   <energy>
    <i name="e_fr_energy">     56.75247751 </i>
    <i name="e_wo_entrp">     56.85117240 </i>
    <i name="e_0_energy">     56.78537580 </i>
   </energy>
  </scstep>
  <scstep>
   <time name="diag">    0.38    0.49</time>
   <time name="diis">    0.10    0.14</time>
   <time name="orth">    0.01    0.02</time>
   <time name="total">    0.49    0.65</time>
   <energy>
    <i name="e_fr_energy">    -51.03592036 </i>
    <i name="e_wo_entrp">    -51.06449260 </i>
    <i name="e_0_energy">    -51.04544444 </i>
   </energy>
  </scstep>
  <scstep>
   <time name="diag">    0.11    0.21</time>
   <time name="diis">    0.16    0.21</time>
   <time name="orth">    0.03    0.05</time>
   <time name="total">    0.30    0.47</time>
   <energy>
    <i name="e_fr_energy">   -104.43544062 </i>
    <i name="e_wo_entrp">   -104.45367286 </i>
    <i name="e_0_energy">   -104.44151804 </i>
   </energy>
  </scstep>
  <scstep>
   <time name="diag">    0.07    0.09</time>
   <time name="diis">    0.20    0.20</time>
   <time name="orth">    0.02    0.02</time>
   <time name="total">    0.29    0.31</time>
   <energy>
    <i name="e_fr_energy">   -131.87706428 </i>
    <i name="e_wo_entrp">   -131.87365205 </i>
    <i name="e_0_energy">   -131.87592687 </i>
   </energy>
  </scstep>
  <scstep>
   <time name="diag">    0.29    0.49</time>
   <time name="diis">    0.14    0.21</time>
   <time name="orth">    0.01    0.02</time>
   <time name="total">    0.44    0.72</time>
   <energy>
    <i name="e_fr_energy">   -143.55402879 </i>
    <i name="e_wo_entrp">   -143.58037317 </i>
    <i name="e_0_energy">   -143.56281025 </i>
   </energy>
  </scstep>
  <scstep>
   <time name="diag">    0.04    0.08</time>
   <time name="diis">    0.31    0.54</time>
   <time name="orth">    0.03    0.03</time>
   <time name="total">    0.38    0.65</time>
   <energy>
    <i name="e_fr_energy">   -155.16227815 </i>
    <i name="e_wo_entrp">   -155.20762323 </i>
    <i name="e_0_energy">   -155.17739318 </i>
   </energy>
  </scstep>
  <scstep>
   <time name="diag">    0.38    0.67</time>
   <time name="diis">    0.38    0.53</time>
   <time name="orth">    0.01    0.02</time>
   <time name="total">    0.76    1.22</time>
   <energy>
    <i name="e_fr_energy">   -155.55890279 </i>
    <i name="e_wo_entrp">   -155.61532003 </i>
    <i name="e_0_energy">   -155.57770854 </i>
   </energy>
  </scstep>
  <scstep>
   <time name="diag">    0.06    0.07</time>
   <time name="diis">    0.42    0.50</time>
   <time name="orth">    0.01    0.01</time>
   <time name="total">    0.48    0.57</time>
   <energy>
    <i name="e_fr_energy">   -155.79684062 </i>
    <i name="e_wo_entrp">   -155.84505043 </i>
    <i name="e_0_energy">   -155.81291056 </i>
   </energy>
  </scstep>
  <scstep>
   <time name="diag">    0.15    0.20</time>
   <time name="diis">    0.41    0.52</time>
   <time name="orth">    0.05    0.09</time>
   <time name="total">    0.65    0.89</time>
   <energy>
    <i name="e_fr_energy">   -155.89742818 </i>
    <i name="e_wo_entrp">   -155.93954138 </i>
    <i name="e_0_energy">   -155.91146591 </i>
   </energy>
  </scstep>
  <scstep>
   <time name="diag">    0.14    0.28</time>
   <time name="diis">    0.25    0.37</time>
   <time name="orth">    0.02    0.02</time>
   <time name="total">    0.89    1.49</time>
   <energy>
    <i name="e_fr_energy">   -148.71207671 </i>
    <i name="e_wo_entrp">   -148.78474261 </i>
    <i name="e_0_energy">   -148.73629868 </i>
   </energy>
  </scstep>
  <scstep>
   <time name="diag">    0.09    0.15</time>
   <time name="diis">    0.29    0.39</time>
   <time name="orth">    0.01    0.04</time>
   <time name="total">    0.73    1.10</time>
   <energy>
    <i name="e_fr_energy">   -182.61313852 </i>
    <i name="e_wo_entrp">   -182.62196969 </i>
    <i name="e_0_energy">   -182.61608224 </i>
   </energy>
  </scstep>
  <scstep>
   <time name="diag">    0.05    0.10</time>
   <time name="diis">    0.30    0.38</time>
   <time name="orth">    0.01    0.01</time>
   <time name="total">    0.52    0.74</time>
   <energy>
    <i name="e_fr_energy">   -137.91351235 </i>
    <i name="e_wo_entrp">   -137.84624865 </i>
    <i name="e_0_energy">   -137.89109112 </i>
   </energy>
  </scstep>
  <scstep>
   <time name="diag">    0.15    0.18</time>
   <time name="diis">    0.24    0.35</time>
   <time name="orth">    0.01    0.02</time>
   <time name="total">    0.73    1.12</time>
   <energy>
    <i name="e_fr_energy">   -147.11204107 </i>
    <i name="e_wo_entrp">   -147.16816571 </i>
    <i name="e_0_energy">   -147.13074928 </i>
   </energy>
  </scstep>
  <scstep>
   <time name="diag">    0.12    0.16</time>
   <time name="diis">    0.29    0.39</time>
   <time name="orth">    0.06    0.13</time>
   <time name="total">    0.61    0.90</time>
   <energy>
    <i name="e_fr_energy">   -157.67469644 </i>
    <i name="e_wo_entrp">   -157.69320620 </i>
    <i name="e_0_energy">   -157.68086636 </i>
   </energy>
  </scstep>
  <scstep>
   <time name="diag">    0.11    0.13</time>
   <time name="diis">    0.26    0.30</time>
   <time name="orth">    0.02    0.02</time>
   <time name="total">    0.50    0.58</time>
   <energy>
    <i name="e_fr_energy">   -143.55506078 </i>
    <i name="e_wo_entrp">   -143.55152184 </i>
    <i name="e_0_energy">   -143.55388113 </i>
   </energy>
  </scstep>
  <scstep>
   <time name="diag">    0.08    0.08</time>
   <time name="diis">    0.23    0.28</time>
   <time name="orth">    0.01    0.01</time>
   <time name="total">    0.41    0.46</time>
   <energy>
    <i name="e_fr_energy">   -140.28376518 </i>
    <i name="e_wo_entrp">   -140.21718205 </i>
    <i name="e_0_energy">   -140.26157080 </i>
   </energy>
  </scstep>
  <scstep>
   <time name="diag">    0.10    0.18</time>
   <time name="diis">    0.25    0.39</time>
   <time name="orth">    0.03    0.03</time>
   <time name="total">    0.54    0.85</time>
   <energy>
    <i name="e_fr_energy">   -150.38167325 </i>
    <i name="e_wo_entrp">   -150.32333129 </i>
    <i name="e_0_energy">   -150.36222593 </i>
   </energy>
  </scstep>
  <scstep>
   <time name="diag">    0.58    0.98</time>
   <time name="diis">    0.22    0.36</time>
   <time name="orth">    0.05    0.07</time>
   <time name="total">    1.12    1.79</time>
   <energy>
    <i name="e_fr_energy">   -142.24049193 </i>
    <i name="e_wo_entrp">   -142.19234403 </i>
    <i name="e_0_energy">   -142.22444263 </i>
   </energy>
  </scstep>
  <scstep>
   <time name="diag">    0.14    0.14</time>
   <time name="diis">    0.22    0.28</time>
   <time name="orth">    0.01    0.01</time>
   <time name="total">    0.49    0.57</time>
   <energy>
    <i name="e_fr_energy">   -138.45848407 </i>
    <i name="e_wo_entrp">   -138.50240475 </i>
    <i name="e_0_energy">   -138.47312429 </i>
   </energy>
  </scstep>
  <scstep>
   <time name="diag">    0.13    0.18</time>
   <time name="diis">    0.24    0.39</time>
   <time name="orth">    0.01    0.02</time>
   <time name="total">    0.49    0.71</time>
   <energy>
    <i name="e_fr_energy">   -135.02100995 </i>
    <i name="e_wo_entrp">   -134.99895313 </i>
    <i name="e_0_energy">   -135.01365768 </i>
   </energy>
  </scstep>
  <scstep>
   <time name="diag">    0.03    0.03</time>
   <time name="diis">    0.22    0.38</time>
   <time name="orth">    0.01    0.01</time>
   <time name="total">    0.43    0.67</time>
   <energy>
    <i name="e_fr_energy">   -133.76555680 </i>
    <i name="e_wo_entrp">   -133.78300045 </i>
    <i name="e_0_energy">   -133.77137135 </i>
   </energy>
  </scstep>
  <scstep>
   <time name="diag">    0.07    0.15</time>
   <time name="diis">    0.28    0.38</time>
   <time name="orth">    0.06    0.09</time>
   <time name="total">    0.65    1.00</time>
   <energy>
    <i name="e_fr_energy">   -133.01586461 </i>
    <i name="e_wo_entrp">   -133.00867465 </i>
    <i name="e_0_energy">   -133.01346796 </i>
   </energy>
  </scstep>
  <scstep>
   <time name="diag">    0.10    0.14</time>
   <time name="diis">    0.31    0.37</time>
   <time name="orth">    0.01    0.01</time>
   <time name="total">    0.56    0.68</time>
   <energy>
    <i name="e_fr_energy">   -132.31468364 </i>
    <i name="e_wo_entrp">   -132.29872746 </i>
    <i name="e_0_energy">   -132.30936491 </i>
   </energy>
  </scstep>
  <scstep>
   <time name="diag">    0.16    0.30</time>
   <time name="diis">    0.27    0.40</time>
   <time name="orth">    0.10    0.19</time>
   <time name="total">    0.64    1.01</time>
   <energy>
    <i name="e_fr_energy">   -132.20611920 </i>
    <i name="e_wo_entrp">   -132.17699544 </i>
    <i name="e_0_energy">   -132.19641128 </i>
   </energy>
  </scstep>
  <scstep>
   <time name="diag">    0.04    0.07</time>
   <time name="diis">    0.29    0.48</time>
   <time name="orth">    0.04    0.06</time>
   <time name="total">    0.47    0.74</time>
   <energy>
    <i name="e_fr_energy">   -132.27090127 </i>
    <i name="e_wo_entrp">   -132.24945273 </i>
    <i name="e_0_energy">   -132.26375176 </i>
   </energy>
  </scstep>
  <scstep>
   <time name="diag">    0.05    0.07</time>
   <time name="diis">    0.32    0.43</time>
   <time name="orth">    0.02    0.03</time>
   <time name="total">    0.47    0.66</time>
   <energy>
    <i name="e_fr_energy">   -132.40209135 </i>
    <i name="e_wo_entrp">   -132.39830335 </i>
    <i name="e_0_energy">   -132.40082869 </i>
   </energy>
  </scstep>
  <scstep>
   <time name="diag">    0.17    0.23</time>
   <time name="diis">    0.34    0.45</time>
   <time name="orth">    0.01    0.01</time>
   <time name="total">    0.58    0.82</time>
   <energy>
    <i name="e_fr_energy">   -132.47344766 </i>
    <i name="e_wo_entrp">   -132.47527295 </i>
    <i name="e_0_energy">   -132.47405609 </i>
   </energy>
  </scstep>
  <scstep>
   <time name="diag">    0.07    0.09</time>
   <time name="diis">    0.27    0.40</time>
   <time name="orth">    0.06    0.06</time>
   <time name="total">    0.55    0.77</time>
   <energy>
    <i name="e_fr_energy">   -132.45085688 </i>
    <i name="e_wo_entrp">   -132.46587190 </i>
    <i name="e_0_energy">   -132.45586189 </i>
   </energy>
  </scstep>
  <scstep>
   <time name="diag">    0.09    0.17</time>
   <time name="diis">    0.23    0.28</time>
   <time name="orth">    0.01    0.02</time>
   <time name="total">    0.42    0.64</time>
   <energy>
    <i name="e_fr_energy">   -132.45099128 </i>
    <i name="e_wo_entrp">   -132.46111074 </i>
    <i name="e_0_energy">   -132.45436444 </i>
   </energy>
  </scstep>
  <scstep>
   <time name="diag">    0.10    0.21</time>
   <time name="diis">    0.32    0.35</time>
   <time name="orth">    0.03    0.04</time>
   <time name="total">    0.75    1.00</time>
   <energy>
    <i name="e_fr_energy">   -132.44115730 </i>
    <i name="e_wo_entrp">   -132.45152618 </i>
    <i name="e_0_energy">   -132.44461359 </i>
   </energy>
  </scstep>
  <scstep>
   <time name="diag">    0.12    0.19</time>
   <time name="diis">    0.27    0.36</time>
   <time name="orth">    0.01    0.01</time>
   <time name="total">    0.72    0.96</time>
   <energy>
    <i name="e_fr_energy">   -132.43687539 </i>
    <i name="e_wo_entrp">   -132.45255424 </i>
    <i name="e_0_energy">   -132.44210168 </i>
   </energy>
  </scstep>
  <scstep>
   <time name="diag">    0.05    0.05</time>
   <time name="diis">    0.20    0.34</time>
   <time name="orth">    0.03    0.03</time>
   <time name="total">    0.37    0.57</time>
   <energy>
    <i name="e_fr_energy">   -132.43604555 </i>
    <i name="e_wo_entrp">   -132.45163633 </i>
    <i name="e_0_energy">   -132.44124248 </i>
   </energy>
  </scstep>
  <scstep>
   <time name="diag">    0.09    0.15</time>
   <time name="diis">    0.18    0.33</time>
   <time name="orth">    0.02    0.03</time>
   <time name="total">    0.36    0.67</time>
   <energy>
    <i name="e_fr_energy">   -132.43351982 </i>
    <i name="e_wo_entrp">   -132.45022838 </i>
    <i name="e_0_energy">   -132.43908934 </i>
   </energy>
  </scstep>
  <scstep>
   <time name="diag">    0.26    0.27</time>
   <time name="diis">    0.18    0.27</time>
   <time name="orth">    0.03    0.03</time>
   <time name="total">    0.61    0.83</time>
   <energy>
    <i name="e_fr_energy">   -132.43171752 </i>
    <i name="e_wo_entrp">   -132.44792548 </i>
    <i name="e_0_energy">   -132.43712017 </i>
   </energy>
  </scstep>
  <scstep>
   <time name="diag">    0.07    0.08</time>
   <time name="diis">    0.13    0.27</time>
   <time name="orth">    0.11    0.14</time>
   <time name="total">    0.48    0.70</time>
   <energy>
    <i name="e_fr_energy">   -132.43113604 </i>
    <i name="e_wo_entrp">   -132.44866501 </i>
    <i name="e_0_energy">   -132.43697903 </i>
   </energy>
  </scstep>
  <scstep>
   <time name="diag">    0.08    0.11</time>
   <time name="diis">    0.17    0.20</time>
   <time name="orth">    0.01    0.01</time>
   <time name="total">    0.36    0.44</time>
   <energy>
    <i name="e_fr_energy">   -132.43099829 </i>
    <i name="e_wo_entrp">   -132.44836839 </i>
    <i name="e_0_energy">   -132.43678833 </i>
   </energy>
  </scstep>
  <scstep>
   <time name="diag">    0.11    0.15</time>
   <time name="diis">    0.16    0.20</time>
   <time name="orth">    0.03    0.05</time>
   <time name="total">    0.40    0.52</time>
   <energy>
    <i name="alphaZ">    634.09262729 </i>
    <i name="ewald"> -10613.77772960 </i>
    <i name="hartreedc">  -4467.30704935 </i>
    <i name="XCdc">    604.65707429 </i>
    <i name="pawpsdc">  14858.27231706 </i>
    <i name="pawaedc"> -14998.90572088 </i>
    <i name="eentropy">      0.01841212 </i>
    <i name="bandstr">  -1000.75545332 </i>
    <i name="atom">  14851.27451460 </i>
    <i name="e_fr_energy">   -132.43100778 </i>
    <i name="e_wo_entrp">   -132.44941991 </i>
    <i name="e_0_energy">   -132.43714516 </i>
   </energy>
  </scstep>
  <structure>
   <crystal>
    <varray name="basis" >
     <v>       5.73591900       0.00000000      -0.79026700 </v>
     <v>       0.00000000       4.78544200       0.03244500 </v>
     <v>       0.00000000       0.00000000      10.88396600 </v>
    </varray>
    <i name="volume">    298.75297805 </i>
    <varray name="rec_basis" >
     <v>       0.17433998       0.00000000       0.00000000 </v>
     <v>       0.00000000       0.20896711       0.00000000 </v>
     <v>       0.01265854      -0.00062293       0.09187827 </v>
    </varray>
   </crystal>
   <varray name="positions" >
    <v>       0.24699400       0.24850600       0.74623300 </v>
    <v>       0.24699400       0.75149400       0.24623300 </v>
    <v>       0.51485700       0.24497600       0.49879200 </v>
    <v>       0.51485700       0.75502400       0.99879200 </v>
    <v>       0.75545000       0.22967900       0.25946000 </v>
    <v>       0.75373900       0.77103800       0.76486200 </v>
    <v>       0.99045900       0.24137200       0.99652900 </v>
    <v>       0.99592900       0.75862800       0.49652900 </v>
    <v>       0.77857200       0.05847800       0.41725200 </v>
    <v>       0.77857200       0.94152200       0.91725200 </v>
    <v>       0.01370000       0.05755600       0.18278600 </v>
    <v>       0.01370000       0.94244400       0.68278600 </v>
    <v>       0.22224900       0.44944100       0.57080400 </v>
    <v>       0.21784000       0.55055900       0.07080400 </v>
    <v>       0.27923300       0.05174700       0.92203700 </v>
    <v>       0.27923300       0.94825300       0.42203700 </v>
    <v>       0.48187500       0.45353000       0.31584000 </v>
    <v>       0.48187500       0.54647000       0.82311600 </v>
    <v>       0.52253600       0.03560000       0.67416600 </v>
    <v>       0.52253600       0.96151400       0.17416600 </v>
    <v>       0.71596900       0.44302000       0.09109400 </v>
    <v>       0.72235300       0.55698000       0.59109400 </v>
    <v>       0.97343300       0.45650500       0.81960400 </v>
    <v>       0.97343300       0.54349500       0.31960400 </v>
   </varray>
  </structure>
  <varray name="forces" >
   <v>       0.10215282      -0.04049156       0.00151626 </v>
   <v>       0.12796158      -0.03392755      -0.13243332 </v>
   <v>       0.96911512      -0.70588732      -0.91020425 </v>
   <v>       0.77921091       0.76667249      -0.79928968 </v>
   <v>      -0.17559963       0.36483154       0.82877830 </v>
   <v>       0.11582513      -0.39497254      -0.02894847 </v>
   <v>      -0.92598771      -1.23714557      -0.76355980 </v>
   <v>      -1.25792828       1.27626631      -0.60031526 </v>
   <v>      -0.29045110      -0.14249777       0.99470069 </v>
   <v>      -0.37982879       0.21278830       1.33412190 </v>
   <v>       0.32066544      -0.37982033      -0.14941152 </v>
   <v>       0.30713504       0.42441807      -0.03572702 </v>
   <v>       0.15147410      -0.17741645       0.25735634 </v>
   <v>       0.10141432       0.16848582       0.27286454 </v>
   <v>      -0.21194862       0.25778825      -0.05632275 </v>
   <v>      -0.21744512      -0.28544898      -0.02928809 </v>
   <v>      -0.16688849      -0.17494139       0.45964095 </v>
   <v>      -0.16168570       0.12049972       0.20991665 </v>
   <v>      -0.33533716       0.70290775       0.16743932 </v>
   <v>      -0.28773042      -0.64677167       0.04517271 </v>
   <v>       0.35811554       0.00653066      -0.91443054 </v>
   <v>       0.22520455      -0.05001513      -0.85463465 </v>
   <v>       0.39173433      -0.39424077       0.44910248 </v>
   <v>       0.46082213       0.36238814       0.25395520 </v>
  </varray>
  <varray name="stress" >
   <v>    -245.51633318       0.19251781      20.49424913 </v>
   <v>       0.19251709    -261.80809064      -2.90499535 </v>
   <v>      20.49424967      -2.90499524    -292.82878067 </v>
  </varray>
  <energy>
   <i name="e_fr_energy">   -132.43100778 </i>
   <i name="e_wo_entrp">   -132.43714516 </i>
   <i name="e_0_energy">      0.01841212 </i>
  </energy>
  <time name="totalsc">   22.27   32.46</time>
  <eigenvalues>
   <array>
    <dimension dim="1">band</dimension>
    <dimension dim="2">kpoint</dimension>
    <dimension dim="3">spin</dimension>
    <field>eigene</field>
    <field>occ</field>
    <set>
     <set comment="spin 1">
      <set comment="kpoint 1">
       <r>  -22.7243    1.0000 </r>
       <r>  -22.6220    1.0000 </r>
       <r>  -22.3890    1.0000 </r>
       <r>  -22.3632    1.0000 </r>
       <r>  -22.3141    1.0000 </r>
       <r>  -22.2688    1.0000 </r>
       <r>  -22.1870    1.0000 </r>
       <r>  -22.1602    1.0000 </r>
       <r>  -22.1271    1.0000 </r>
       <r>  -22.1006    1.0000 </r>
       <r>  -22.0213    1.0000 </r>
       <r>  -22.0071    1.0000 </r>
       <r>  -21.9035    1.0000 </r>
       <r>  -21.7653    1.0000 </r>
       <r>  -16.7243    1.0000 </r>
       <r>  -16.4983    1.0000 </r>
       <r>   -6.1282    1.0000 </r>
       <r>   -5.7772    1.0000 </r>
       <r>   -5.3623    1.0000 </r>
       <r>   -5.2240    1.0000 </r>
       <r>   -5.1984    1.0000 </r>
       <r>   -5.0688    1.0000 </r>
       <r>   -5.0077    1.0000 </r>
       <r>   -4.9148    1.0000 </r>
       <r>   -4.8705    1.0000 </r>
       <r>   -4.7925    1.0000 </r>
       <r>   -4.7084    1.0000 </r>
       <r>   -4.6110    1.0000 </r>
       <r>   -4.5642    1.0000 </r>
       <r>   -4.5480    1.0000 </r>
       <r>   -4.4378    1.0000 </r>
       <r>   -4.4103    1.0000 </r>
       <r>   -4.3806    1.0000 </r>
       <r>   -4.3190    1.0000 </r>
       <r>   -4.3025    1.0000 </r>
       <r>   -4.2400    1.0000 </r>
       <r>   -4.2247    1.0000 </r>
       <r>   -4.1949    1.0000 </r>
       <r>   -4.0568    1.0000 </r>
       <r>   -4.0359    1.0000 </r>
       <r>   -3.9986    1.0000 </r>
       <r>   -3.9469    1.0000 </r>
       <r>   -3.9066    1.0000 </r>
       <r>   -3.8679    1.0000 </r>
       <r>   -3.7248    1.0000 </r>
       <r>   -3.6340    1.0000 </r>
       <r>   -3.4342    1.0000 </r>
       <r>   -3.3508    1.0000 </r>
       <r>   -3.3359    1.0000 </r>
       <r>   -3.1971    1.0000 </r>
       <r>   -3.1045    1.0000 </r>
       <r>   -3.0329    1.0000 </r>
       <r>   -2.9712    1.0000 </r>
       <r>   -2.9430    1.0000 </r>
       <r>   -2.8137    1.0000 </r>
       <r>   -2.7339    1.0000 </r>
       <r>   -2.6936    1.0000 </r>
       <r>   -2.6212    1.0000 </r>
       <r>   -2.4884    1.0000 </r>
       <r>   -2.3887    1.0000 </r>
       <r>   -2.3513    1.0000 </r>
       <r>   -2.2277    1.0000 </r>
       <r>   -1.5684    1.0000 </r>
       <r>   -1.3663    1.0000 </r>
       <r>    0.9204    1.0000 </r>
       <r>    0.9342    1.0000 </r>
       <r>    1.0078    1.0001 </r>
       <r>    1.0169    1.0001 </r>
       <r>    1.0428    1.0001 </r>
       <r>    1.0482    1.0002 </r>
       <r>    1.0721    1.0003 </r>
       <r>    1.1063    1.0007 </r>
       <r>    1.1669    1.0026 </r>
       <r>    1.1795    1.0033 </r>
       <r>    1.2404    1.0096 </r>
       <r>    1.2569    1.0122 </r>
       <r>    1.3069    1.0226 </r>
       <r>    1.3143    1.0243 </r>
       <r>    1.3463    1.0312 </r>
       <r>    1.3968    1.0348 </r>
       <r>    1.4222    1.0284 </r>
       <r>    1.4333    1.0228 </r>
       <r>    1.4720    0.9862 </r>
       <r>    1.5153    0.9056 </r>
       <r>    1.5421    0.8324 </r>
       <r>    1.5606    0.7718 </r>
       <r>    1.5786    0.7064 </r>
       <r>    1.6621    0.3623 </r>
       <r>    1.6651    0.3502 </r>
       <r>    1.8078   -0.0103 </r>
       <r>    1.8767   -0.0354 </r>
       <r>    1.9192   -0.0298 </r>
       <r>    1.9520   -0.0224 </r>
       <r>    2.0331   -0.0075 </r>
       <r>    2.1142   -0.0016 </r>
       <r>    2.1290   -0.0012 </r>
       <r>    2.3715   -0.0000 </r>
       <r>    2.4479   -0.0000 </r>
       <r>    2.7825   -0.0000 </r>
       <r>    2.8532   -0.0000 </r>
       <r>    2.8895   -0.0000 </r>
       <r>    2.9499   -0.0000 </r>
       <r>    3.0350   -0.0000 </r>
       <r>    3.2256   -0.0000 </r>
      </set>
     </set>
    </set>
   </array>
  </eigenvalues>
  <separator name="orbital magnetization" >
   <v name="MAGDIPOLOUT">      0.00000000      0.00000000      0.00000000</v>
  </separator>
  <dos>
   <i name="efermi">      1.62908546 </i>
   <total>
    <array>
     <dimension dim="1">gridpoints</dimension>
     <dimension dim="2">spin</dimension>
     <field>energy</field>
     <field>total</field>
     <field>integrated</field>
     <set>
      <set comment="spin 1">
       <r>   -24.7243     0.0000     0.0000 </r>
       <r>   -24.6244     0.0000     0.0000 </r>
       <r>   -24.5246     0.0000     0.0000 </r>
       <r>   -24.4248     0.0000     0.0000 </r>
       <r>   -24.3249    -0.0000    -0.0000 </r>
       <r>   -24.2251    -0.0000    -0.0000 </r>
       <r>   -24.1253    -0.0000    -0.0000 </r>
       <r>   -24.0254    -0.0000    -0.0000 </r>
       <r>   -23.9256    -0.0000    -0.0000 </r>
       <r>   -23.8258    -0.0000    -0.0000 </r>
       <r>   -23.7259    -0.0000    -0.0000 </r>
       <r>   -23.6261    -0.0000    -0.0000 </r>
       <r>   -23.5263    -0.0000    -0.0000 </r>
       <r>   -23.4264    -0.0001    -0.0000 </r>
       <r>   -23.3266    -0.0017    -0.0002 </r>
       <r>   -23.2268    -0.0217    -0.0024 </r>
       <r>   -23.1269    -0.1506    -0.0174 </r>
       <r>   -23.0271    -0.5154    -0.0688 </r>
       <r>   -22.9273    -0.3899    -0.1078 </r>
       <r>   -22.8274     2.7989     0.1717 </r>
       <r>   -22.7276     9.4664     1.1167 </r>
       <r>   -22.6278    13.2381     2.4383 </r>
       <r>   -22.5279    11.8553     3.6219 </r>
       <r>   -22.4281    15.8532     5.2045 </r>
       <r>   -22.3283    29.0357     8.1033 </r>
       <r>   -22.2284    41.1926    12.2156 </r>
       <r>   -22.1286    46.5358    16.8614 </r>
       <r>   -22.0288    43.3044    21.1846 </r>
       <r>   -21.9289    31.8958    24.3689 </r>
       <r>   -21.8291    19.7416    26.3398 </r>
       <r>   -21.7293    11.5464    27.4925 </r>
       <r>   -21.6294     5.2827    28.0199 </r>
       <r>   -21.5296     0.8159    28.1013 </r>
       <r>   -21.4298    -0.5766    28.0438 </r>
       <r>   -21.3299    -0.3474    28.0091 </r>
       <r>   -21.2301    -0.0805    28.0010 </r>
       <r>   -21.1303    -0.0097    28.0001 </r>
       <r>   -21.0304    -0.0007    28.0000 </r>
       <r>   -20.9306    -0.0000    28.0000 </r>
       <r>   -20.8308    -0.0000    28.0000 </r>
       <r>   -20.7309    -0.0000    28.0000 </r>
       <r>   -20.6311    -0.0000    28.0000 </r>
       <r>   -20.5313    -0.0000    28.0000 </r>
       <r>   -20.4315     0.0000    28.0000 </r>
       <r>   -20.3316     0.0000    28.0000 </r>
       <r>   -20.2318     0.0000    28.0000 </r>
       <r>   -20.1320     0.0000    28.0000 </r>
       <r>   -20.0321     0.0000    28.0000 </r>
       <r>   -19.9323     0.0000    28.0000 </r>
       <r>   -19.8325     0.0000    28.0000 </r>
       <r>   -19.7326     0.0000    28.0000 </r>
       <r>   -19.6328     0.0000    28.0000 </r>
       <r>   -19.5330     0.0000    28.0000 </r>
       <r>   -19.4331     0.0000    28.0000 </r>
       <r>   -19.3333     0.0000    28.0000 </r>
       <r>   -19.2335     0.0000    28.0000 </r>
       <r>   -19.1336     0.0000    28.0000 </r>
       <r>   -19.0338     0.0000    28.0000 </r>
       <r>   -18.9340     0.0000    28.0000 </r>
       <r>   -18.8341     0.0000    28.0000 </r>
       <r>   -18.7343     0.0000    28.0000 </r>
       <r>   -18.6345     0.0000    28.0000 </r>
       <r>   -18.5346     0.0000    28.0000 </r>
       <r>   -18.4348     0.0000    28.0000 </r>
       <r>   -18.3350    -0.0000    28.0000 </r>
       <r>   -18.2351    -0.0000    28.0000 </r>
       <r>   -18.1353    -0.0000    28.0000 </r>
       <r>   -18.0355    -0.0000    28.0000 </r>
       <r>   -17.9356    -0.0000    28.0000 </r>
       <r>   -17.8358    -0.0000    28.0000 </r>
       <r>   -17.7360    -0.0000    28.0000 </r>
       <r>   -17.6361    -0.0000    28.0000 </r>
       <r>   -17.5363    -0.0000    28.0000 </r>
       <r>   -17.4365    -0.0001    28.0000 </r>
       <r>   -17.3366    -0.0013    27.9999 </r>
       <r>   -17.2368    -0.0162    27.9983 </r>
       <r>   -17.1370    -0.1129    27.9870 </r>
       <r>   -17.0371    -0.3741    27.9496 </r>
       <r>   -16.9373    -0.1905    27.9306 </r>
       <r>   -16.8375     2.2390    28.1541 </r>
       <r>   -16.7376     6.6338    28.8164 </r>
       <r>   -16.6378     9.2852    29.7434 </r>
       <r>   -16.5380     9.6277    30.7045 </r>
       <r>   -16.4381     8.4266    31.5458 </r>
       <r>   -16.3383     4.5501    32.0000 </r>
       <r>   -16.2385     0.7261    32.0725 </r>
       <r>   -16.1386    -0.4334    32.0293 </r>
       <r>   -16.0388    -0.2384    32.0055 </r>
       <r>   -15.9390    -0.0492    32.0006 </r>
       <r>   -15.8391    -0.0053    32.0000 </r>
       <r>   -15.7393    -0.0003    32.0000 </r>
       <r>   -15.6395    -0.0000    32.0000 </r>
       <r>   -15.5396    -0.0000    32.0000 </r>
       <r>   -15.4398    -0.0000    32.0000 </r>
       <r>   -15.3400    -0.0000    32.0000 </r>
       <r>   -15.2401    -0.0000    32.0000 </r>
       <r>   -15.1403     0.0000    32.0000 </r>
       <r>   -15.0405     0.0000    32.0000 </r>
       <r>   -14.9406     0.0000    32.0000 </r>
       <r>   -14.8408     0.0000    32.0000 </r>
       <r>   -14.7410     0.0000    32.0000 </r>
       <r>   -14.6411     0.0000    32.0000 </r>
       <r>   -14.5413     0.0000    32.0000 </r>
       <r>   -14.4415     0.0000    32.0000 </r>
       <r>   -14.3416     0.0000    32.0000 </r>
       <r>   -14.2418     0.0000    32.0000 </r>
       <r>   -14.1420     0.0000    32.0000 </r>
       <r>   -14.0421     0.0000    32.0000 </r>
       <r>   -13.9423     0.0000    32.0000 </r>
       <r>   -13.8425     0.0000    32.0000 </r>
       <r>   -13.7426     0.0000    32.0000 </r>
       <r>   -13.6428     0.0000    32.0000 </r>
       <r>   -13.5430     0.0000    32.0000 </r>
       <r>   -13.4431     0.0000    32.0000 </r>
       <r>   -13.3433     0.0000    32.0000 </r>
       <r>   -13.2435     0.0000    32.0000 </r>
       <r>   -13.1436     0.0000    32.0000 </r>
       <r>   -13.0438     0.0000    32.0000 </r>
       <r>   -12.9440     0.0000    32.0000 </r>
       <r>   -12.8441     0.0000    32.0000 </r>
       <r>   -12.7443     0.0000    32.0000 </r>
       <r>   -12.6445     0.0000    32.0000 </r>
       <r>   -12.5446     0.0000    32.0000 </r>
       <r>   -12.4448     0.0000    32.0000 </r>
       <r>   -12.3450     0.0000    32.0000 </r>
       <r>   -12.2452     0.0000    32.0000 </r>
       <r>   -12.1453     0.0000    32.0000 </r>
       <r>   -12.0455     0.0000    32.0000 </r>
       <r>   -11.9457     0.0000    32.0000 </r>
       <r>   -11.8458     0.0000    32.0000 </r>
       <r>   -11.7460     0.0000    32.0000 </r>
       <r>   -11.6462     0.0000    32.0000 </r>
       <r>   -11.5463     0.0000    32.0000 </r>
       <r>   -11.4465     0.0000    32.0000 </r>
       <r>   -11.3467     0.0000    32.0000 </r>
       <r>   -11.2468     0.0000    32.0000 </r>
       <r>   -11.1470     0.0000    32.0000 </r>
       <r>   -11.0472     0.0000    32.0000 </r>
       <r>   -10.9473     0.0000    32.0000 </r>
       <r>   -10.8475     0.0000    32.0000 </r>
       <r>   -10.7477     0.0000    32.0000 </r>
       <r>   -10.6478     0.0000    32.0000 </r>
       <r>   -10.5480     0.0000    32.0000 </r>
       <r>   -10.4482     0.0000    32.0000 </r>
       <r>   -10.3483     0.0000    32.0000 </r>
       <r>   -10.2485     0.0000    32.0000 </r>
       <r>   -10.1487     0.0000    32.0000 </r>
       <r>   -10.0488     0.0000    32.0000 </r>
       <r>    -9.9490     0.0000    32.0000 </r>
       <r>    -9.8492     0.0000    32.0000 </r>
       <r>    -9.7493     0.0000    32.0000 </r>
       <r>    -9.6495     0.0000    32.0000 </r>
       <r>    -9.5497     0.0000    32.0000 </r>
       <r>    -9.4498     0.0000    32.0000 </r>
       <r>    -9.3500     0.0000    32.0000 </r>
       <r>    -9.2502     0.0000    32.0000 </r>
       <r>    -9.1503     0.0000    32.0000 </r>
       <r>    -9.0505     0.0000    32.0000 </r>
       <r>    -8.9507     0.0000    32.0000 </r>
       <r>    -8.8508     0.0000    32.0000 </r>
       <r>    -8.7510     0.0000    32.0000 </r>
       <r>    -8.6512     0.0000    32.0000 </r>
       <r>    -8.5513     0.0000    32.0000 </r>
       <r>    -8.4515     0.0000    32.0000 </r>
       <r>    -8.3517     0.0000    32.0000 </r>
       <r>    -8.2518     0.0000    32.0000 </r>
       <r>    -8.1520     0.0000    32.0000 </r>
       <r>    -8.0522     0.0000    32.0000 </r>
       <r>    -7.9523     0.0000    32.0000 </r>
       <r>    -7.8525     0.0000    32.0000 </r>
       <r>    -7.7527    -0.0000    32.0000 </r>
       <r>    -7.6528    -0.0000    32.0000 </r>
       <r>    -7.5530    -0.0000    32.0000 </r>
       <r>    -7.4532    -0.0000    32.0000 </r>
       <r>    -7.3533    -0.0000    32.0000 </r>
       <r>    -7.2535    -0.0000    32.0000 </r>
       <r>    -7.1537    -0.0000    32.0000 </r>
       <r>    -7.0538    -0.0000    32.0000 </r>
       <r>    -6.9540    -0.0000    32.0000 </r>
       <r>    -6.8542    -0.0000    32.0000 </r>
       <r>    -6.7543    -0.0008    31.9999 </r>
       <r>    -6.6545    -0.0117    31.9987 </r>
       <r>    -6.5547    -0.0894    31.9898 </r>
       <r>    -6.4548    -0.3296    31.9569 </r>
       <r>    -6.3550    -0.2535    31.9316 </r>
       <r>    -6.2552     1.9486    32.1261 </r>
       <r>    -6.1553     6.2509    32.7502 </r>
       <r>    -6.0555     7.5931    33.5082 </r>
       <r>    -5.9557     4.8092    33.9883 </r>
       <r>    -5.8558     4.6365    34.4512 </r>
       <r>    -5.7560     7.3296    35.1830 </r>
       <r>    -5.6562     5.9357    35.7755 </r>
       <r>    -5.5563     1.7323    35.9485 </r>
       <r>    -5.4565     2.2333    36.1714 </r>
       <r>    -5.3567     9.1531    37.0852 </r>
       <r>    -5.2568    17.7525    38.8575 </r>
       <r>    -5.1570    22.8852    41.1422 </r>
       <r>    -5.0572    24.5412    43.5922 </r>
       <r>    -4.9573    26.3056    46.2184 </r>
       <r>    -4.8575    27.6447    48.9782 </r>
       <r>    -4.7577    26.6175    51.6355 </r>
       <r>    -4.6578    26.8485    54.3159 </r>
       <r>    -4.5580    31.3567    57.4463 </r>
       <r>    -4.4582    38.1271    61.2527 </r>
       <r>    -4.3584    45.4394    65.7890 </r>
       <r>    -4.2585    48.1295    70.5939 </r>
       <r>    -4.1587    42.4111    74.8279 </r>
       <r>    -4.0589    38.0197    78.6236 </r>
       <r>    -3.9590    39.9181    82.6087 </r>
       <r>    -3.8592    36.3279    86.2354 </r>
       <r>    -3.7594    25.2293    88.7541 </r>
       <r>    -3.6595    16.5509    90.4065 </r>
       <r>    -3.5597    12.6705    91.6714 </r>
       <r>    -3.4599    14.6268    93.1316 </r>
       <r>    -3.3600    21.3767    95.2657 </r>
       <r>    -3.2602    23.9949    97.6612 </r>
       <r>    -3.1604    22.9563    99.9530 </r>
       <r>    -3.0605    25.8279   102.5315 </r>
       <r>    -2.9607    29.1116   105.4378 </r>
       <r>    -2.8609    27.6481   108.1980 </r>
       <r>    -2.7610    26.4430   110.8378 </r>
       <r>    -2.6612    26.4954   113.4830 </r>
       <r>    -2.5614    23.3133   115.8104 </r>
       <r>    -2.4615    21.3381   117.9406 </r>
       <r>    -2.3617    23.1358   120.2504 </r>
       <r>    -2.2619    21.2857   122.3754 </r>
       <r>    -2.1620    13.0585   123.6790 </r>
       <r>    -2.0622     4.2653   124.1049 </r>
       <r>    -1.9624    -0.2399   124.0809 </r>
       <r>    -1.8625    -1.1023   123.9709 </r>
       <r>    -1.7627    -0.2649   123.9444 </r>
       <r>    -1.6629     2.9048   124.2344 </r>
       <r>    -1.5630     7.6532   124.9985 </r>
       <r>    -1.4632    10.4837   126.0451 </r>
       <r>    -1.3634    10.3669   127.0800 </r>
       <r>    -1.2635     7.2960   127.8084 </r>
       <r>    -1.1637     2.5969   128.0677 </r>
       <r>    -1.0639    -0.1141   128.0563 </r>
       <r>    -0.9640    -0.4079   128.0156 </r>
       <r>    -0.8642    -0.1338   128.0022 </r>
       <r>    -0.7644    -0.0204   128.0002 </r>
       <r>    -0.6645    -0.0017   128.0000 </r>
       <r>    -0.5647    -0.0001   128.0000 </r>
       <r>    -0.4649    -0.0000   128.0000 </r>
       <r>    -0.3650    -0.0000   128.0000 </r>
       <r>    -0.2652    -0.0000   128.0000 </r>
       <r>    -0.1654    -0.0000   128.0000 </r>
       <r>    -0.0655    -0.0000   128.0000 </r>
       <r>     0.0343    -0.0000   128.0000 </r>
       <r>     0.1341    -0.0000   128.0000 </r>
       <r>     0.2340    -0.0002   128.0000 </r>
       <r>     0.3338    -0.0048   127.9995 </r>
       <r>     0.4336    -0.0591   127.9936 </r>
       <r>     0.5335    -0.4142   127.9522 </r>
       <r>     0.6333    -1.5298   127.7995 </r>
       <r>     0.7331    -1.9427   127.6056 </r>
       <r>     0.8330     5.7072   128.1753 </r>
       <r>     0.9328    28.4088   131.0115 </r>
       <r>     1.0326    55.2918   136.5314 </r>
       <r>     1.1325    66.1322   143.1336 </r>
       <r>     1.2323    63.1218   149.4352 </r>
       <r>     1.3321    62.5523   155.6800 </r>
       <r>     1.4320    66.1665   162.2856 </r>
       <r>     1.5318    65.1823   168.7929 </r>
       <r>     1.6316    53.2892   174.1130 </r>
       <r>     1.7315    35.7775   177.6847 </r>
       <r>     1.8313    27.7480   180.4549 </r>
       <r>     1.9311    31.6998   183.6196 </r>
       <r>     2.0310    34.6311   187.0769 </r>
       <r>     2.1308    28.9864   189.9707 </r>
       <r>     2.2306    18.2222   191.7899 </r>
       <r>     2.3305    12.5056   193.0383 </r>
       <r>     2.4303    13.6586   194.4019 </r>
       <r>     2.5301    10.8461   195.4847 </r>
       <r>     2.6300     4.5920   195.9432 </r>
       <r>     2.7298     7.6633   196.7082 </r>
       <r>     2.8296    21.1481   198.8195 </r>
       <r>     2.9295    30.6058   201.8750 </r>
       <r>     3.0293    26.5758   204.5281 </r>
       <r>     3.1291    16.5241   206.1777 </r>
       <r>     3.2290    10.2706   207.2031 </r>
       <r>     3.3288     6.4831   207.8503 </r>
       <r>     3.4286     2.2602   208.0760 </r>
       <r>     3.5285    -0.1886   208.0571 </r>
       <r>     3.6283    -0.4164   208.0156 </r>
       <r>     3.7281    -0.1338   208.0022 </r>
       <r>     3.8279    -0.0203   208.0002 </r>
       <r>     3.9278    -0.0017   208.0000 </r>
       <r>     4.0276    -0.0001   208.0000 </r>
       <r>     4.1274    -0.0000   208.0000 </r>
       <r>     4.2273    -0.0000   208.0000 </r>
       <r>     4.3271    -0.0000   208.0000 </r>
       <r>     4.4269    -0.0000   208.0000 </r>
       <r>     4.5268    -0.0000   208.0000 </r>
       <r>     4.6266     0.0000   208.0000 </r>
       <r>     4.7264     0.0000   208.0000 </r>
       <r>     4.8263     0.0000   208.0000 </r>
       <r>     4.9261     0.0000   208.0000 </r>
       <r>     5.0259     0.0000   208.0000 </r>
       <r>     5.1258     0.0000   208.0000 </r>
       <r>     5.2256     0.0000   208.0000 </r>
      </set>
     </set>
    </array>
   </total>
  </dos>
 </calculation>
 <structure name="finalpos" >
  <crystal>
   <varray name="basis" >
    <v>       5.73591900       0.00000000      -0.79026700 </v>
    <v>       0.00000000       4.78544200       0.03244500 </v>
    <v>       0.00000000       0.00000000      10.88396600 </v>
   </varray>
   <i name="volume">    298.75297805 </i>
   <varray name="rec_basis" >
    <v>       0.17433998       0.00000000       0.00000000 </v>
    <v>       0.00000000       0.20896711       0.00000000 </v>
    <v>       0.01265854      -0.00062293       0.09187827 </v>
   </varray>
  </crystal>
  <varray name="positions" >
   <v>       0.24699400       0.24850600       0.74623300 </v>
   <v>       0.24699400       0.75149400       0.24623300 </v>
   <v>       0.51485700       0.24497600       0.49879200 </v>
   <v>       0.51485700       0.75502400       0.99879200 </v>
   <v>       0.75545000       0.22967900       0.25946000 </v>
   <v>       0.75373900       0.77103800       0.76486200 </v>
   <v>       0.99045900       0.24137200       0.99652900 </v>
   <v>       0.99592900       0.75862800       0.49652900 </v>
   <v>       0.77857200       0.05847800       0.41725200 </v>
   <v>       0.77857200       0.94152200       0.91725200 </v>
   <v>       0.01370000       0.05755600       0.18278600 </v>
   <v>       0.01370000       0.94244400       0.68278600 </v>
   <v>       0.22224900       0.44944100       0.57080400 </v>
   <v>       0.21784000       0.55055900       0.07080400 </v>
   <v>       0.27923300       0.05174700       0.92203700 </v>
   <v>       0.27923300       0.94825300       0.42203700 </v>
   <v>       0.48187500       0.45353000       0.31584000 </v>
   <v>       0.48187500       0.54647000       0.82311600 </v>
   <v>       0.52253600       0.03560000       0.67416600 </v>
   <v>       0.52253600       0.96151400       0.17416600 </v>
   <v>       0.71596900       0.44302000       0.09109400 </v>
   <v>       0.72235300       0.55698000       0.59109400 </v>
   <v>       0.97343300       0.45650500       0.81960400 </v>
   <v>       0.97343300       0.54349500       0.31960400 </v>
  </varray>
 </structure>
</modeling>
