<?xml version="1.0" encoding="ISO-8859-1"?>
<modeling>
 <generator>
  <i name="program" type="string">vasp </i>
  <i name="version" type="string">5.3.5  </i>
  <i name="subversion" type="string">31Mar14 (build Aug 29 2014 19:41:47) complex                          parallel </i>
  <i name="platform" type="string">LinuxIFC </i>
  <i name="date" type="string">2019 04 11 </i>
  <i name="time" type="string">15:42:56 </i>
 </generator>
 <incar>
  <i type="string" name="SYSTEM"> Fe6OF11_var_6</i>
  <i type="int" name="ISTART">     0</i>
  <i type="string" name="PREC">normal</i>
  <i type="string" name="ALGO"> VeryFast</i>
  <i type="int" name="ISPIN">     1</i>
  <i type="int" name="ICHARG">     2</i>
  <i type="int" name="NELM">   300</i>
  <i type="int" name="ISYM">     0</i>
  <i type="logical" name="LWAVE"> F  </i>
  <i type="int" name="NELM">   300</i>
 </incar>
 <kpoints>
  <generation param="Gamma">
   <v type="int" name="divisions">       1        1        1 </v>
   <v name="usershift">      0.00000000       0.00000000       0.00000000 </v>
   <v name="genvec1">      1.00000000       0.00000000      -0.00000000 </v>
   <v name="genvec2">      0.00000000       1.00000000      -0.00000000 </v>
   <v name="genvec3">      0.00000000       0.00000000       1.00000000 </v>
   <v name="shift">      0.00000000       0.00000000       0.00000000 </v>
  </generation>
  <varray name="kpointlist" >
   <v>       0.00000000       0.00000000       0.00000000 </v>
  </varray>
  <varray name="weights" >
   <v>       1.00000000 </v>
  </varray>
 </kpoints>
 <parameters>
  <separator name="general" >
   <i type="string" name="SYSTEM">Fe6OF11_var_6</i>
   <i type="logical" name="LCOMPAT"> F  </i>
  </separator>
  <separator name="electronic" >
   <i type="string" name="PREC">normal</i>
   <i name="ENMAX">    400.00000000</i>
   <i name="ENAUG">    613.61400000</i>
   <i name="EDIFF">      0.00010000</i>
   <i type="int" name="IALGO">    48</i>
   <i type="int" name="IWAVPR">    10</i>
   <i type="int" name="NBANDS">   160</i>
   <i name="NELECT">    262.00000000</i>
   <i type="int" name="TURBO">     0</i>
   <i type="int" name="IRESTART">     0</i>
   <i type="int" name="NREBOOT">     0</i>
   <i type="int" name="NMIN">     0</i>
   <i name="EREF">      0.00000000</i>
   <separator name="electronic smearing" >
    <i type="int" name="ISMEAR">     1</i>
    <i name="SIGMA">      0.20000000</i>
    <i name="KSPACING">      0.50000000</i>
    <i type="logical" name="KGAMMA"> T  </i>
   </separator>
   <separator name="electronic projectors" >
    <i type="logical" name="LREAL"> F  </i>
    <v name="ROPT">      0.00000000      0.00000000      0.00000000</v>
    <i type="int" name="LMAXPAW">  -100</i>
    <i type="int" name="LMAXMIX">     2</i>
    <i type="logical" name="NLSPLINE"> F  </i>
   </separator>
   <separator name="electronic startup" >
    <i type="int" name="ISTART">     0</i>
    <i type="int" name="ICHARG">     2</i>
    <i type="int" name="INIWAV">     1</i>
   </separator>
   <separator name="electronic spin" >
    <i type="int" name="ISPIN">     1</i>
    <i type="logical" name="LNONCOLLINEAR"> F  </i>
    <v name="MAGMOM">      1.00000000      1.00000000      1.00000000      1.00000000      1.00000000      1.00000000      1.00000000      1.00000000      1.00000000      1.00000000      1.00000000      1.00000000      1.00000000      1.00000000      1.00000000      1.00000000      1.00000000      1.00000000      1.00000000      1.00000000
      1.00000000      1.00000000      1.00000000      1.00000000      1.00000000      1.00000000      1.00000000      1.00000000      1.00000000      1.00000000      1.00000000      1.00000000      1.00000000      1.00000000      1.00000000      1.00000000</v>
    <i name="NUPDOWN">     -1.00000000</i>
    <i type="logical" name="LSORBIT"> F  </i>
    <v name="SAXIS">      0.00000000      0.00000000      1.00000000</v>
    <i type="logical" name="LSPIRAL"> F  </i>
    <v name="QSPIRAL">      0.00000000      0.00000000      0.00000000</v>
    <i type="logical" name="LZEROZ"> F  </i>
   </separator>
   <separator name="electronic exchange-correlation" >
    <i type="logical" name="LASPH"> F  </i>
    <i type="logical" name="LMETAGGA"> F  </i>
   </separator>
   <separator name="electronic convergence" >
    <i type="int" name="NELM">   300</i>
    <i type="int" name="NELMDL">   -12</i>
    <i type="int" name="NELMIN">     2</i>
    <i name="ENINI">    400.00000000</i>
    <separator name="electronic convergence detail" >
     <i type="logical" name="LDIAG"> T  </i>
     <i type="logical" name="LSUBROT"> F  </i>
     <i name="WEIMIN">      0.00000000</i>
     <i name="EBREAK">      0.00000016</i>
     <i name="DEPER">      0.30000000</i>
     <i type="int" name="NRMM">     4</i>
     <i name="TIME">      0.40000000</i>
    </separator>
   </separator>
   <separator name="electronic mixer" >
    <i name="AMIX">      0.40000000</i>
    <i name="BMIX">      1.00000000</i>
    <i name="AMIN">      0.10000000</i>
    <i name="AMIX_MAG">      1.60000000</i>
    <i name="BMIX_MAG">      1.00000000</i>
    <separator name="electronic mixer details" >
     <i type="int" name="IMIX">     4</i>
     <i type="int" name="MAXMIX">   -45</i>
     <i name="WC">    100.00000000</i>
     <i type="int" name="INIMIX">     1</i>
     <i type="int" name="MIXPRE">     1</i>
     <i type="int" name="MREMOVE">     5</i>
    </separator>
   </separator>
   <separator name="electronic dipolcorrection" >
    <i type="logical" name="LDIPOL"> F  </i>
    <i type="logical" name="LMONO"> F  </i>
    <i type="int" name="IDIPOL">     0</i>
    <i name="EPSILON">      1.00000000</i>
    <v name="DIPOL">   -100.00000000   -100.00000000   -100.00000000</v>
    <i name="EFIELD">      0.00000000</i>
   </separator>
  </separator>
  <separator name="grids" >
   <i type="int" name="NGX">    16</i>
   <i type="int" name="NGY">   108</i>
   <i type="int" name="NGZ">    36</i>
   <i type="int" name="NGXF">    32</i>
   <i type="int" name="NGYF">   216</i>
   <i type="int" name="NGZF">    72</i>
   <i type="logical" name="ADDGRID"> F  </i>
  </separator>
  <separator name="ionic" >
   <i type="int" name="NSW">     0</i>
   <i type="int" name="IBRION">    -1</i>
   <i type="int" name="ISIF">     2</i>
   <i name="PSTRESS">      0.00000000</i>
   <i name="EDIFFG">      0.00100000</i>
   <i type="int" name="NFREE">     0</i>
   <i name="POTIM">      0.50000000</i>
   <i name="SMASS">     -3.00000000</i>
   <i name="SCALEE">      1.00000000</i>
  </separator>
  <separator name="ionic md" >
   <i name="TEBEG">      0.00010000</i>
   <i name="TEEND">      0.00010000</i>
   <i type="int" name="NBLOCK">     1</i>
   <i type="int" name="KBLOCK">     1</i>
   <i type="int" name="NPACO">   256</i>
   <i name="APACO">     16.00000000</i>
  </separator>
  <separator name="symmetry" >
   <i type="int" name="ISYM">     0</i>
   <i name="SYMPREC">      0.00001000</i>
  </separator>
  <separator name="dos" >
   <i type="logical" name="LORBIT"> F  </i>
   <v name="RWIGS">     -1.00000000     -1.00000000     -1.00000000</v>
   <i type="int" name="NEDOS">   301</i>
   <i name="EMIN">     10.00000000</i>
   <i name="EMAX">    -10.00000000</i>
   <i name="EFERMI">      0.00000000</i>
  </separator>
  <separator name="writing" >
   <i type="int" name="NWRITE">     2</i>
   <i type="logical" name="LWAVE"> F  </i>
   <i type="logical" name="LCHARG"> T  </i>
   <i type="logical" name="LPARD"> F  </i>
   <i type="logical" name="LVTOT"> F  </i>
   <i type="logical" name="LVHAR"> F  </i>
   <i type="logical" name="LELF"> F  </i>
   <i type="logical" name="LOPTICS"> F  </i>
   <v name="STM">      0.00000000      0.00000000      0.00000000      0.00000000      0.00000000      0.00000000      0.00000000</v>
  </separator>
  <separator name="performance" >
   <i type="int" name="NPAR">     4</i>
   <i type="int" name="NSIM">     4</i>
   <i type="int" name="NBLK">    -1</i>
   <i type="logical" name="LPLANE"> T  </i>
   <i type="logical" name="LSCALAPACK"> T  </i>
   <i type="logical" name="LSCAAWARE"> F  </i>
   <i type="logical" name="LSCALU"> F  </i>
   <i type="logical" name="LASYNC"> F  </i>
   <i type="logical" name="LORBITALREAL"> F  </i>
  </separator>
  <separator name="miscellaneous" >
   <i type="int" name="IDIOT">     3</i>
   <i type="logical" name="LMUSIC"> F  </i>
   <v name="POMASS">     55.84700000     16.00000000     18.99800000</v>
   <v name="DARWINR">      0.00000000      0.00000000      0.00000000</v>
   <v name="DARWINV">      1.00000000      1.00000000      1.00000000</v>
   <i type="logical" name="LCORR"> T  </i>
  </separator>
  <i type="logical" name="GGA_COMPAT"> T  </i>
  <i type="logical" name="LBERRY"> F  </i>
  <i type="int" name="ICORELEVEL">     0</i>
  <i type="logical" name="LDAU"> F  </i>
  <i type="int" name="I_CONSTRAINED_M">     0</i>
  <separator name="electronic exchange-correlation" >
   <i type="string" name="GGA">--</i>
   <i type="int" name="VOSKOWN">     0</i>
   <i type="logical" name="LHFCALC"> F  </i>
   <i type="string" name="PRECFOCK"></i>
   <i type="logical" name="LSYMGRAD"> F  </i>
   <i type="logical" name="LHFONE"> F  </i>
   <i type="logical" name="LRHFCALC"> F  </i>
   <i type="logical" name="LTHOMAS"> F  </i>
   <i type="logical" name="LMODELHF"> F  </i>
   <i name="ENCUT4O">     -1.00000000</i>
   <i type="int" name="EXXOEP">     0</i>
   <i type="int" name="FOURORBIT">     0</i>
   <i name="AEXX">      0.00000000</i>
   <i name="HFALPHA">      0.00000000</i>
   <i name="MCALPHA">      0.00000000</i>
   <i name="ALDAX">      1.00000000</i>
   <i name="AGGAX">      1.00000000</i>
   <i name="ALDAC">      1.00000000</i>
   <i name="AGGAC">      1.00000000</i>
   <i type="int" name="NKREDX">     1</i>
   <i type="int" name="NKREDY">     1</i>
   <i type="int" name="NKREDZ">     1</i>
   <i type="logical" name="SHIFTRED"> F  </i>
   <i type="logical" name="ODDONLY"> F  </i>
   <i type="logical" name="EVENONLY"> F  </i>
   <i type="int" name="LMAXFOCK">     0</i>
   <i type="int" name="NMAXFOCKAE">     0</i>
   <i type="logical" name="LFOCKAEDFT"> F  </i>
   <i name="HFSCREEN">      0.00000000</i>
   <i name="HFSCREENC">      0.00000000</i>
   <i type="int" name="NBANDSGWLOW">     0</i>
  </separator>
  <separator name="vdW DFT" >
   <i type="logical" name="LUSE_VDW"> F  </i>
   <i name="Zab_VDW">     -0.84910000</i>
   <i name="PARAM1">      0.12340000</i>
   <i name="PARAM2">      1.00000000</i>
   <i name="PARAM3">      0.00000000</i>
  </separator>
  <separator name="model GW" >
   <i type="int" name="MODEL_GW">     0</i>
   <i name="MODEL_EPS0">      7.56646665</i>
   <i name="MODEL_ALPHA">      1.00000000</i>
  </separator>
  <separator name="linear response parameters" >
   <i type="logical" name="LEPSILON"> F  </i>
   <i type="logical" name="LRPA"> F  </i>
   <i type="logical" name="LNABLA"> F  </i>
   <i type="logical" name="LVEL"> F  </i>
   <i type="int" name="KINTER">     0</i>
   <i name="CSHIFT">      0.10000000</i>
   <i name="OMEGAMAX">     -1.00000000</i>
   <i name="DEG_THRESHOLD">      0.00200000</i>
  </separator>
  <separator name="orbital magnetization" >
   <i type="logical" name="NUCIND"> F  </i>
   <v name="MAGPOS">      0.00000000      0.00000000      0.00000000</v>
   <i type="logical" name="LNICSALL"> T  </i>
   <i type="logical" name="ORBITALMAG"> F  </i>
   <i type="logical" name="LMAGBLOCH"> F  </i>
   <i type="logical" name="LCHIMAG"> F  </i>
   <i type="logical" name="LGAUGE"> T  </i>
   <i type="int" name="MAGATOM">     0</i>
   <v name="MAGDIPOL">      0.00000000      0.00000000      0.00000000</v>
   <v name="AVECCONST">      0.00000000      0.00000000      0.00000000</v>
  </separator>
  <separator name="response functions" >
   <i type="logical" name="LADDER"> F  </i>
   <i type="logical" name="LFXC"> F  </i>
   <i type="logical" name="LHARTREE"> T  </i>
   <i type="int" name="IBSE">     0</i>
   <i type="logical" name="LTCTE"> F  </i>
   <i type="logical" name="LTETE"> F  </i>
   <i type="logical" name="LTRIPLET"> F  </i>
   <i type="logical" name="LFXCEPS"> F  </i>
   <i type="logical" name="LFXHEG"> F  </i>
   <i type="logical" name="L2ORDER"> F  </i>
   <i type="logical" name="LUSEW"> F  </i>
   <i name="ENCUTGW">     -2.00000000</i>
   <i name="ENCUTGWSOFT">     -2.00000000</i>
   <i name="ENCUTLF">     -1.00000000</i>
   <i type="int" name="LMAXMP2">    -1</i>
   <i name="SCISSOR">      0.00000000</i>
   <i type="int" name="NOMEGA">     0</i>
   <i type="int" name="NOMEGAR">     0</i>
   <i type="int" name="NBANDSGW">    -1</i>
   <i type="int" name="NBANDSO">    -1</i>
   <i type="int" name="NBANDSV">    -1</i>
   <i type="int" name="NELM">   300</i>
   <i type="int" name="DIM">     3</i>
   <i type="int" name="ANTIRES">     0</i>
   <i name="OMEGAMAX">    -30.00000000</i>
   <i name="OMEGAMIN">    -30.00000000</i>
   <i name="OMEGATL">   -200.00000000</i>
   <i type="int" name="OMEGAGRID">     0</i>
   <i name="CSHIFT">     -0.10000000</i>
   <i type="logical" name="SELFENERGY"> F  </i>
   <i type="logical" name="LSPECTRAL"> F  </i>
   <i type="logical" name="ODDONLYGW"> F  </i>
   <i type="logical" name="EVENONLYGW"> F  </i>
   <i type="int" name="NKREDLFX">     1</i>
   <i type="int" name="NKREDLFY">     1</i>
   <i type="int" name="NKREDLFZ">     1</i>
   <i type="int" name="MAXMEM">  1800</i>
   <i type="int" name="TELESCOPE">     0</i>
   <i type="int" name="TAUPAR">     1</i>
  </separator>
  <separator name="External order field" >
   <i name="OFIELD_KAPPA">      0.00000000</i>
   <v name="OFIELD_K">      0.00000000      0.00000000      0.00000000</v>
   <i name="OFIELD_Q6_NEAR">      0.00000000</i>
   <i name="OFIELD_Q6_FAR">      0.00000000</i>
   <i name="OFIELD_A">      0.00000000</i>
  </separator>
 </parameters>
 <atominfo>
  <atoms>      36 </atoms>
  <types>       3 </types>
  <array name="atoms" >
   <dimension dim="1">ion</dimension>
   <field type="string">element</field>
   <field type="int">atomtype</field>
   <set>
    <rc><c>Fe</c><c>   1</c></rc>
    <rc><c>Fe</c><c>   1</c></rc>
    <rc><c>Fe</c><c>   1</c></rc>
    <rc><c>Fe</c><c>   1</c></rc>
    <rc><c>Fe</c><c>   1</c></rc>
    <rc><c>Fe</c><c>   1</c></rc>
    <rc><c>Fe</c><c>   1</c></rc>
    <rc><c>Fe</c><c>   1</c></rc>
    <rc><c>Fe</c><c>   1</c></rc>
    <rc><c>Fe</c><c>   1</c></rc>
    <rc><c>Fe</c><c>   1</c></rc>
    <rc><c>Fe</c><c>   1</c></rc>
    <rc><c>O </c><c>   2</c></rc>
    <rc><c>O </c><c>   2</c></rc>
    <rc><c>F </c><c>   3</c></rc>
    <rc><c>F </c><c>   3</c></rc>
    <rc><c>F </c><c>   3</c></rc>
    <rc><c>F </c><c>   3</c></rc>
    <rc><c>F </c><c>   3</c></rc>
    <rc><c>F </c><c>   3</c></rc>
    <rc><c>F </c><c>   3</c></rc>
    <rc><c>F </c><c>   3</c></rc>
    <rc><c>F </c><c>   3</c></rc>
    <rc><c>F </c><c>   3</c></rc>
    <rc><c>F </c><c>   3</c></rc>
    <rc><c>F </c><c>   3</c></rc>
    <rc><c>F </c><c>   3</c></rc>
    <rc><c>F </c><c>   3</c></rc>
    <rc><c>F </c><c>   3</c></rc>
    <rc><c>F </c><c>   3</c></rc>
    <rc><c>F </c><c>   3</c></rc>
    <rc><c>F </c><c>   3</c></rc>
    <rc><c>F </c><c>   3</c></rc>
    <rc><c>F </c><c>   3</c></rc>
    <rc><c>F </c><c>   3</c></rc>
    <rc><c>F </c><c>   3</c></rc>
   </set>
  </array>
  <array name="atomtypes" >
   <dimension dim="1">type</dimension>
   <field type="int">atomspertype</field>
   <field type="string">element</field>
   <field>mass</field>
   <field>valence</field>
   <field type="string">pseudopotential</field>
   <set>
    <rc><c>  12</c><c>Fe</c><c>     55.84700000</c><c>      8.00000000</c><c>  PAW_PBE Fe 06Sep2000                  </c></rc>
    <rc><c>   2</c><c>O </c><c>     16.00000000</c><c>      6.00000000</c><c>  PAW_PBE O 08Apr2002                   </c></rc>
    <rc><c>  22</c><c>F </c><c>     18.99800000</c><c>      7.00000000</c><c>  PAW_PBE F 08Apr2002                   </c></rc>
   </set>
  </array>
 </atominfo>
 <structure name="initialpos" >
  <crystal>
   <varray name="basis" >
    <v>       3.25262800      -0.01400200       0.00000000 </v>
    <v>       0.00000000      20.54938400       0.00000000 </v>
    <v>      -0.05092400       0.00000000       6.79221100 </v>
   </varray>
   <i name="volume">    453.98799923 </i>
   <varray name="rec_basis" >
    <v>       0.30744370       0.00000000       0.00230503 </v>
    <v>       0.00020949       0.04866326       0.00000157 </v>
    <v>       0.00000000       0.00000000       0.14722746 </v>
   </varray>
  </crystal>
  <varray name="positions" >
   <v>       0.00000000       0.16671900       0.50139100 </v>
   <v>       0.00000000       0.83328100       0.50101100 </v>
   <v>       0.00000000       0.66671900       0.00139100 </v>
   <v>       0.00000000       0.33328100       0.00139100 </v>
   <v>       0.50000000       0.16602100       0.00000400 </v>
   <v>       0.50000000       0.83397900       0.00000400 </v>
   <v>       0.50000000       0.66602100       0.50000400 </v>
   <v>       0.50000000       0.32938300       0.50000400 </v>
   <v>       0.00000000       0.00000000       0.01216200 </v>
   <v>       0.00000000       0.50000000       0.50593800 </v>
   <v>       0.50602900       0.00000000       0.47240000 </v>
   <v>       0.50000000       0.50000000       0.97240000 </v>
   <v>       0.00000000       0.00000000       0.31436200 </v>
   <v>       0.00000000       0.50000000       0.81436200 </v>
   <v>       0.00497400       0.16816900       0.20329900 </v>
   <v>       0.00000000       0.83183100       0.20329900 </v>
   <v>       0.00000000       0.66816900       0.70329900 </v>
   <v>       0.00000000       0.32571000       0.70329900 </v>
   <v>       0.00000000       0.16838200       0.79934600 </v>
   <v>       0.00000000       0.83161800       0.79934600 </v>
   <v>       0.00000000       0.66838200       0.30805100 </v>
   <v>       0.00000000       0.33161800       0.29934600 </v>
   <v>       0.50000000       0.06837200       0.99633700 </v>
   <v>       0.50000000       0.93162800       0.99633700 </v>
   <v>       0.49407000       0.56837200       0.48900000 </v>
   <v>       0.50000000       0.43162800       0.49633700 </v>
   <v>       0.50000000       0.09818400       0.50567900 </v>
   <v>       0.50000000       0.90181600       0.50567900 </v>
   <v>       0.50000000       0.59818400       0.00567900 </v>
   <v>       0.50000000       0.40181600       0.00567900 </v>
   <v>       0.50000000       0.23406000       0.50152500 </v>
   <v>       0.50000000       0.76594000       0.50152500 </v>
   <v>       0.50000000       0.73406000       0.00152500 </v>
   <v>       0.49785500       0.26594000       0.00152500 </v>
   <v>       0.00000000       0.00000000       0.69474100 </v>
   <v>       0.99532000       0.50000000       0.19474100 </v>
  </varray>
 </structure>
 <calculation>
  <scstep>
   <time name="diag">    0.29    0.46</time>
   <time name="diis">    0.46    0.64</time>
   <time name="orth">    0.16    0.16</time>
   <time name="total">    1.11    1.57</time>
   <energy>
    <i name="alphaZ">    943.57652748 </i>
    <i name="ewald"> -15980.58100162 </i>
    <i name="hartreedc">  -6704.08201547 </i>
    <i name="XCdc">    902.23259907 </i>
    <i name="pawpsdc">  19213.82102697 </i>
    <i name="pawaedc"> -19422.08171028 </i>
    <i name="eentropy">     -0.07572530 </i>
    <i name="bandstr">   1835.40590802 </i>
    <i name="atom">  22504.09828397 </i>
    <i name="e_fr_energy">   3292.31389284 </i>
    <i name="e_wo_entrp">   3292.38961813 </i>
    <i name="e_0_energy">   3292.33913460 </i>
   </energy>
  </scstep>
  <scstep>
   <time name="diag">    0.56    0.80</time>
   <time name="diis">    0.40    0.56</time>
   <time name="orth">    0.14    0.20</time>
   <time name="total">    1.12    1.58</time>
   <energy>
    <i name="e_fr_energy">   1031.36734378 </i>
    <i name="e_wo_entrp">   1031.45290805 </i>
    <i name="e_0_energy">   1031.39586520 </i>
   </energy>
  </scstep>
  <scstep>
   <time name="diag">    0.27    0.37</time>
   <time name="diis">    0.38    0.54</time>
   <time name="orth">    0.15    0.21</time>
   <time name="total">    0.80    1.12</time>
   <energy>
    <i name="e_fr_energy">    350.97508385 </i>
    <i name="e_wo_entrp">    350.91356692 </i>
    <i name="e_0_energy">    350.95457820 </i>
   </energy>
  </scstep>
  <scstep>
   <time name="diag">    0.30    0.39</time>
   <time name="diis">    0.52    0.65</time>
   <time name="orth">    0.03    0.06</time>
   <time name="total">    0.85    1.10</time>
   <energy>
    <i name="e_fr_energy">     63.20730182 </i>
    <i name="e_wo_entrp">     63.14852748 </i>
    <i name="e_0_energy">     63.18771037 </i>
   </energy>
  </scstep>
  <scstep>
   <time name="diag">    0.66    0.99</time>
   <time name="diis">    0.42    0.63</time>
   <time name="orth">    0.18    0.27</time>
   <time name="total">    1.25    1.90</time>
   <energy>
    <i name="e_fr_energy">    -93.02088608 </i>
    <i name="e_wo_entrp">    -93.01380207 </i>
    <i name="e_0_energy">    -93.01852475 </i>
   </energy>
  </scstep>
  <scstep>
   <time name="diag">    0.20    0.27</time>
   <time name="diis">    0.47    0.55</time>
   <time name="orth">    0.05    0.09</time>
   <time name="total">    0.72    0.91</time>
   <energy>
    <i name="e_fr_energy">   -162.27450663 </i>
    <i name="e_wo_entrp">   -162.34672222 </i>
    <i name="e_0_energy">   -162.29857849 </i>
   </energy>
  </scstep>
  <scstep>
   <time name="diag">    0.19    0.23</time>
   <time name="diis">    0.33    0.48</time>
   <time name="orth">    0.03    0.05</time>
   <time name="total">    0.55    0.76</time>
   <energy>
    <i name="e_fr_energy">   -195.88280612 </i>
    <i name="e_wo_entrp">   -196.04767228 </i>
    <i name="e_0_energy">   -195.93776151 </i>
   </energy>
  </scstep>
  <scstep>
   <time name="diag">    0.13    0.18</time>
   <time name="diis">    0.36    0.56</time>
   <time name="orth">    0.05    0.06</time>
   <time name="total">    0.55    0.79</time>
   <energy>
    <i name="e_fr_energy">   -209.01255501 </i>
    <i name="e_wo_entrp">   -209.25123744 </i>
    <i name="e_0_energy">   -209.09211582 </i>
   </energy>
  </scstep>
  <scstep>
   <time name="diag">    0.19    0.26</time>
   <time name="diis">    1.08    1.61</time>
   <time name="orth">    0.04    0.04</time>
   <time name="total">    1.31    1.91</time>
   <energy>
    <i name="e_fr_energy">   -221.87058964 </i>
    <i name="e_wo_entrp">   -222.14812528 </i>
    <i name="e_0_energy">   -221.96310152 </i>
   </energy>
  </scstep>
  <scstep>
   <time name="diag">    0.29    0.43</time>
   <time name="diis">    1.12    1.65</time>
   <time name="orth">    0.09    0.16</time>
   <time name="total">    1.51    2.23</time>
   <energy>
    <i name="e_fr_energy">   -222.15989707 </i>
    <i name="e_wo_entrp">   -222.39859606 </i>
    <i name="e_0_energy">   -222.23946340 </i>
   </energy>
  </scstep>
  <scstep>
   <time name="diag">    0.33    0.45</time>
   <time name="diis">    1.07    1.46</time>
   <time name="orth">    0.12    0.14</time>
   <time name="total">    1.53    2.05</time>
   <energy>
    <i name="e_fr_energy">   -222.41931355 </i>
    <i name="e_wo_entrp">   -222.60271165 </i>
    <i name="e_0_energy">   -222.48044625 </i>
   </energy>
  </scstep>
  <scstep>
   <time name="diag">    0.21    0.31</time>
   <time name="diis">    1.02    1.45</time>
   <time name="orth">    0.26    0.35</time>
   <time name="total">    1.55    2.21</time>
   <energy>
    <i name="e_fr_energy">   -222.55274979 </i>
    <i name="e_wo_entrp">   -222.72487214 </i>
    <i name="e_0_energy">   -222.61012391 </i>
   </energy>
  </scstep>
  <scstep>
   <time name="diag">    0.22    0.34</time>
   <time name="diis">    0.85    1.20</time>
   <time name="orth">    0.06    0.12</time>
   <time name="total">    1.45    2.20</time>
   <energy>
    <i name="e_fr_energy">   -206.43883623 </i>
    <i name="e_wo_entrp">   -206.43070525 </i>
    <i name="e_0_energy">   -206.43612591 </i>
   </energy>
  </scstep>
  <scstep>
   <time name="diag">    0.21    0.26</time>
   <time name="diis">    0.75    1.06</time>
   <time name="orth">    0.03    0.06</time>
   <time name="total">    1.31    1.79</time>
   <energy>
    <i name="e_fr_energy">   -262.33602952 </i>
    <i name="e_wo_entrp">   -262.26125679 </i>
    <i name="e_0_energy">   -262.31110528 </i>
   </energy>
  </scstep>
  <scstep>
   <time name="diag">    0.23    0.35</time>
   <time name="diis">    0.78    1.11</time>
   <time name="orth">    0.05    0.05</time>
   <time name="total">    1.27    1.79</time>
   <energy>
    <i name="e_fr_energy">   -242.14191332 </i>
    <i name="e_wo_entrp">   -242.07102660 </i>
    <i name="e_0_energy">   -242.11828441 </i>
   </energy>
  </scstep>
  <scstep>
   <time name="diag">    0.22    0.29</time>
   <time name="diis">    0.83    1.14</time>
   <time name="orth">    0.10    0.19</time>
   <time name="total">    1.36    1.92</time>
   <energy>
    <i name="e_fr_energy">   -219.37812785 </i>
    <i name="e_wo_entrp">   -219.23098371 </i>
    <i name="e_0_energy">   -219.32907980 </i>
   </energy>
  </scstep>
  <scstep>
   <time name="diag">    0.19    0.28</time>
   <time name="diis">    0.73    1.17</time>
   <time name="orth">    0.11    0.17</time>
   <time name="total">    1.46    2.23</time>
   <energy>
    <i name="e_fr_energy">   -212.64737354 </i>
    <i name="e_wo_entrp">   -212.49888886 </i>
    <i name="e_0_energy">   -212.59787865 </i>
   </energy>
  </scstep>
  <scstep>
   <time name="diag">    0.41    0.64</time>
   <time name="diis">    0.89    1.16</time>
   <time name="orth">    0.04    0.04</time>
   <time name="total">    1.55    2.16</time>
   <energy>
    <i name="e_fr_energy">   -233.45995994 </i>
    <i name="e_wo_entrp">   -233.55083727 </i>
    <i name="e_0_energy">   -233.49025238 </i>
   </energy>
  </scstep>
  <scstep>
   <time name="diag">    0.46    0.59</time>
   <time name="diis">    0.98    1.33</time>
   <time name="orth">    0.05    0.06</time>
   <time name="total">    1.81    2.53</time>
   <energy>
    <i name="e_fr_energy">   -226.13654424 </i>
    <i name="e_wo_entrp">   -226.22221475 </i>
    <i name="e_0_energy">   -226.16510108 </i>
   </energy>
  </scstep>
  <scstep>
   <time name="diag">    0.21    0.26</time>
   <time name="diis">    0.78    1.16</time>
   <time name="orth">    0.04    0.04</time>
   <time name="total">    1.67    2.40</time>
   <energy>
    <i name="e_fr_energy">   -211.61412982 </i>
    <i name="e_wo_entrp">   -211.58183680 </i>
    <i name="e_0_energy">   -211.60336548 </i>
   </energy>
  </scstep>
  <scstep>
   <time name="diag">    0.26    0.29</time>
   <time name="diis">    0.77    1.16</time>
   <time name="orth">    0.15    0.23</time>
   <time name="total">    1.55    2.23</time>
   <energy>
    <i name="e_fr_energy">   -207.34167046 </i>
    <i name="e_wo_entrp">   -207.49044383 </i>
    <i name="e_0_energy">   -207.39126159 </i>
   </energy>
  </scstep>
  <scstep>
   <time name="diag">    0.13    0.22</time>
   <time name="diis">    0.86    1.14</time>
   <time name="orth">    0.08    0.09</time>
   <time name="total">    1.27    1.67</time>
   <energy>
    <i name="e_fr_energy">   -211.22992244 </i>
    <i name="e_wo_entrp">   -211.31036030 </i>
    <i name="e_0_energy">   -211.25673506 </i>
   </energy>
  </scstep>
  <scstep>
   <time name="diag">    0.13    0.23</time>
   <time name="diis">    0.77    1.01</time>
   <time name="orth">    0.03    0.06</time>
   <time name="total">    1.36    1.90</time>
   <energy>
    <i name="e_fr_energy">   -206.76398380 </i>
    <i name="e_wo_entrp">   -206.74474871 </i>
    <i name="e_0_energy">   -206.75757210 </i>
   </energy>
  </scstep>
  <scstep>
   <time name="diag">    0.13    0.26</time>
   <time name="diis">    0.86    1.30</time>
   <time name="orth">    0.04    0.04</time>
   <time name="total">    1.18    1.78</time>
   <energy>
    <i name="e_fr_energy">   -202.81337248 </i>
    <i name="e_wo_entrp">   -202.80728837 </i>
    <i name="e_0_energy">   -202.81134444 </i>
   </energy>
  </scstep>
  <scstep>
   <time name="diag">    0.21    0.32</time>
   <time name="diis">    0.80    1.12</time>
   <time name="orth">    0.19    0.32</time>
   <time name="total">    1.40    2.09</time>
   <energy>
    <i name="e_fr_energy">   -206.45803764 </i>
    <i name="e_wo_entrp">   -206.45247211 </i>
    <i name="e_0_energy">   -206.45618247 </i>
   </energy>
  </scstep>
  <scstep>
   <time name="diag">    0.16    0.21</time>
   <time name="diis">    0.74    1.11</time>
   <time name="orth">    0.27    0.39</time>
   <time name="total">    1.46    2.14</time>
   <energy>
    <i name="e_fr_energy">   -198.50914429 </i>
    <i name="e_wo_entrp">   -198.60077525 </i>
    <i name="e_0_energy">   -198.53968794 </i>
   </energy>
  </scstep>
  <scstep>
   <time name="diag">    0.16    0.27</time>
   <time name="diis">    0.84    1.19</time>
   <time name="orth">    0.05    0.08</time>
   <time name="total">    1.29    1.85</time>
   <energy>
    <i name="e_fr_energy">   -191.90732456 </i>
    <i name="e_wo_entrp">   -192.00166373 </i>
    <i name="e_0_energy">   -191.93877095 </i>
   </energy>
  </scstep>
  <scstep>
   <time name="diag">    0.17    0.23</time>
   <time name="diis">    0.83    1.18</time>
   <time name="orth">    0.02    0.04</time>
   <time name="total">    1.25    1.82</time>
   <energy>
    <i name="e_fr_energy">   -191.68215861 </i>
    <i name="e_wo_entrp">   -191.69682990 </i>
    <i name="e_0_energy">   -191.68704904 </i>
   </energy>
  </scstep>
  <scstep>
   <time name="diag">    0.37    0.52</time>
   <time name="diis">    0.79    1.17</time>
   <time name="orth">    0.10    0.15</time>
   <time name="total">    1.54    2.22</time>
   <energy>
    <i name="e_fr_energy">   -189.91901216 </i>
    <i name="e_wo_entrp">   -189.96463743 </i>
    <i name="e_0_energy">   -189.93422058 </i>
   </energy>
  </scstep>
  <scstep>
   <time name="diag">    0.36    0.40</time>
   <time name="diis">    0.79    1.16</time>
   <time name="orth">    0.06    0.07</time>
   <time name="total">    1.62    2.12</time>
   <energy>
    <i name="e_fr_energy">   -189.66302771 </i>
    <i name="e_wo_entrp">   -189.66833106 </i>
    <i name="e_0_energy">   -189.66479549 </i>
   </energy>
  </scstep>
  <scstep>
   <time name="diag">    0.19    0.30</time>
   <time name="diis">    0.81    1.13</time>
   <time name="orth">    0.06    0.12</time>
   <time name="total">    1.41    2.08</time>
   <energy>
    <i name="e_fr_energy">   -189.40213014 </i>
    <i name="e_wo_entrp">   -189.44834818 </i>
    <i name="e_0_energy">   -189.41753615 </i>
   </energy>
  </scstep>
  <scstep>
   <time name="diag">    0.17    0.20</time>
   <time name="diis">    0.81    1.30</time>
   <time name="orth">    0.27    0.38</time>
   <time name="total">    1.48    2.19</time>
   <energy>
    <i name="e_fr_energy">   -189.19869808 </i>
    <i name="e_wo_entrp">   -189.19086693 </i>
    <i name="e_0_energy">   -189.19608770 </i>
   </energy>
  </scstep>
  <scstep>
   <time name="diag">    0.23    0.35</time>
   <time name="diis">    0.79    1.24</time>
   <time name="orth">    0.10    0.15</time>
   <time name="total">    1.40    2.10</time>
   <energy>
    <i name="e_fr_energy">   -189.18199907 </i>
    <i name="e_wo_entrp">   -189.17400423 </i>
    <i name="e_0_energy">   -189.17933413 </i>
   </energy>
  </scstep>
  <scstep>
   <time name="diag">    0.26    0.42</time>
   <time name="diis">    0.82    1.21</time>
   <time name="orth">    0.20    0.34</time>
   <time name="total">    1.61    2.39</time>
   <energy>
    <i name="e_fr_energy">   -189.31694138 </i>
    <i name="e_wo_entrp">   -189.28324149 </i>
    <i name="e_0_energy">   -189.30570809 </i>
   </energy>
  </scstep>
  <scstep>
   <time name="diag">    0.17    0.29</time>
   <time name="diis">    0.95    1.41</time>
   <time name="orth">    0.12    0.23</time>
   <time name="total">    1.55    2.33</time>
   <energy>
    <i name="e_fr_energy">   -189.35429106 </i>
    <i name="e_wo_entrp">   -189.34675950 </i>
    <i name="e_0_energy">   -189.35178054 </i>
   </energy>
  </scstep>
  <scstep>
   <time name="diag">    0.23    0.44</time>
   <time name="diis">    1.05    1.23</time>
   <time name="orth">    0.11    0.19</time>
   <time name="total">    1.69    2.31</time>
   <energy>
    <i name="e_fr_energy">   -189.42163780 </i>
    <i name="e_wo_entrp">   -189.37273821 </i>
    <i name="e_0_energy">   -189.40533794 </i>
   </energy>
  </scstep>
  <scstep>
   <time name="diag">    0.18    0.25</time>
   <time name="diis">    0.82    1.09</time>
   <time name="orth">    0.04    0.08</time>
   <time name="total">    1.29    1.74</time>
   <energy>
    <i name="e_fr_energy">   -189.31935402 </i>
    <i name="e_wo_entrp">   -189.30951852 </i>
    <i name="e_0_energy">   -189.31607552 </i>
   </energy>
  </scstep>
  <scstep>
   <time name="diag">    0.27    0.43</time>
   <time name="diis">    0.85    1.16</time>
   <time name="orth">    0.11    0.14</time>
   <time name="total">    1.68    2.23</time>
   <energy>
    <i name="e_fr_energy">   -189.30748731 </i>
    <i name="e_wo_entrp">   -189.27359563 </i>
    <i name="e_0_energy">   -189.29619009 </i>
   </energy>
  </scstep>
  <scstep>
   <time name="diag">    0.48    0.72</time>
   <time name="diis">    0.79    1.13</time>
   <time name="orth">    0.03    0.06</time>
   <time name="total">    1.49    2.17</time>
   <energy>
    <i name="e_fr_energy">   -189.26129178 </i>
    <i name="e_wo_entrp">   -189.26548993 </i>
    <i name="e_0_energy">   -189.26269116 </i>
   </energy>
  </scstep>
  <scstep>
   <time name="diag">    0.22    0.35</time>
   <time name="diis">    0.76    1.12</time>
   <time name="orth">    0.19    0.24</time>
   <time name="total">    1.69    2.62</time>
   <energy>
    <i name="e_fr_energy">   -189.25399698 </i>
    <i name="e_wo_entrp">   -189.24368920 </i>
    <i name="e_0_energy">   -189.25056106 </i>
   </energy>
  </scstep>
  <scstep>
   <time name="diag">    0.66    1.11</time>
   <time name="diis">    0.72    1.08</time>
   <time name="orth">    0.09    0.15</time>
   <time name="total">    1.77    2.83</time>
   <energy>
    <i name="e_fr_energy">   -189.23913299 </i>
    <i name="e_wo_entrp">   -189.24726434 </i>
    <i name="e_0_energy">   -189.24184344 </i>
   </energy>
  </scstep>
  <scstep>
   <time name="diag">    0.25    0.36</time>
   <time name="diis">    0.76    1.19</time>
   <time name="orth">    0.06    0.10</time>
   <time name="total">    1.34    1.95</time>
   <energy>
    <i name="e_fr_energy">   -189.23827158 </i>
    <i name="e_wo_entrp">   -189.24104243 </i>
    <i name="e_0_energy">   -189.23919520 </i>
   </energy>
  </scstep>
  <scstep>
   <time name="diag">    0.29    0.45</time>
   <time name="diis">    0.70    0.96</time>
   <time name="orth">    0.17    0.21</time>
   <time name="total">    1.36    1.87</time>
   <energy>
    <i name="e_fr_energy">   -189.23383904 </i>
    <i name="e_wo_entrp">   -189.23946005 </i>
    <i name="e_0_energy">   -189.23571271 </i>
   </energy>
  </scstep>
  <scstep>
   <time name="diag">    0.22    0.36</time>
   <time name="diis">    0.59    0.91</time>
   <time name="orth">    0.10    0.16</time>
   <time name="total">    1.19    1.90</time>
   <energy>
    <i name="e_fr_energy">   -189.23079449 </i>
    <i name="e_wo_entrp">   -189.23678289 </i>
    <i name="e_0_energy">   -189.23279062 </i>
   </energy>
  </scstep>
  <scstep>
   <time name="diag">    0.25    0.39</time>
   <time name="diis">    0.50    0.74</time>
   <time name="orth">    0.15    0.20</time>
   <time name="total">    1.21    1.76</time>
   <energy>
    <i name="e_fr_energy">   -189.22961798 </i>
    <i name="e_wo_entrp">   -189.23674505 </i>
    <i name="e_0_energy">   -189.23199367 </i>
   </energy>
  </scstep>
  <scstep>
   <time name="diag">    0.16    0.24</time>
   <time name="diis">    0.68    0.93</time>
   <time name="orth">    0.07    0.16</time>
   <time name="total">    1.12    1.61</time>
   <energy>
    <i name="e_fr_energy">   -189.22779201 </i>
    <i name="e_wo_entrp">   -189.23756396 </i>
    <i name="e_0_energy">   -189.23104933 </i>
   </energy>
  </scstep>
  <scstep>
   <time name="diag">    0.72    0.94</time>
   <time name="diis">    0.54    0.74</time>
   <time name="orth">    0.04    0.04</time>
   <time name="total">    1.60    2.02</time>
   <energy>
    <i name="e_fr_energy">   -189.22703195 </i>
    <i name="e_wo_entrp">   -189.23790675 </i>
    <i name="e_0_energy">   -189.23065689 </i>
   </energy>
  </scstep>
  <scstep>
   <time name="diag">    0.22    0.36</time>
   <time name="diis">    0.62    0.76</time>
   <time name="orth">    0.07    0.08</time>
   <time name="total">    1.13    1.54</time>
   <energy>
    <i name="e_fr_energy">   -189.22660399 </i>
    <i name="e_wo_entrp">   -189.24050263 </i>
    <i name="e_0_energy">   -189.23123687 </i>
   </energy>
  </scstep>
  <scstep>
   <time name="diag">    0.14    0.26</time>
   <time name="diis">    0.42    0.60</time>
   <time name="orth">    0.03    0.03</time>
   <time name="total">    0.87    1.21</time>
   <energy>
    <i name="e_fr_energy">   -189.22617676 </i>
    <i name="e_wo_entrp">   -189.24079230 </i>
    <i name="e_0_energy">   -189.23104861 </i>
   </energy>
  </scstep>
  <scstep>
   <time name="diag">    0.20    0.32</time>
   <time name="diis">    0.51    0.71</time>
   <time name="orth">    0.20    0.32</time>
   <time name="total">    1.06    1.56</time>
   <energy>
    <i name="e_fr_energy">   -189.22597511 </i>
    <i name="e_wo_entrp">   -189.24257570 </i>
    <i name="e_0_energy">   -189.23150864 </i>
   </energy>
  </scstep>
  <scstep>
   <time name="diag">    0.21    0.25</time>
   <time name="diis">    0.36    0.56</time>
   <time name="orth">    0.02    0.05</time>
   <time name="total">    0.67    0.94</time>
   <energy>
    <i name="alphaZ">    943.57652748 </i>
    <i name="ewald"> -15980.58100162 </i>
    <i name="hartreedc">  -6862.91796340 </i>
    <i name="XCdc">    918.55795330 </i>
    <i name="pawpsdc">  22419.15597815 </i>
    <i name="pawaedc"> -22629.53219884 </i>
    <i name="eentropy">      0.01676706 </i>
    <i name="bandstr">  -1501.60027419 </i>
    <i name="atom">  22504.09828397 </i>
    <i name="e_fr_energy">   -189.22592809 </i>
    <i name="e_wo_entrp">   -189.24269515 </i>
    <i name="e_0_energy">   -189.23151711 </i>
   </energy>
  </scstep>
  <structure>
   <crystal>
    <varray name="basis" >
     <v>       3.25262800      -0.01400200       0.00000000 </v>
     <v>       0.00000000      20.54938400       0.00000000 </v>
     <v>      -0.05092400       0.00000000       6.79221100 </v>
    </varray>
    <i name="volume">    453.98799923 </i>
    <varray name="rec_basis" >
     <v>       0.30744370       0.00000000       0.00230503 </v>
     <v>       0.00020949       0.04866326       0.00000157 </v>
     <v>       0.00000000       0.00000000       0.14722746 </v>
    </varray>
   </crystal>
   <varray name="positions" >
    <v>       0.00000000       0.16671900       0.50139100 </v>
    <v>       0.00000000       0.83328100       0.50101100 </v>
    <v>       0.00000000       0.66671900       0.00139100 </v>
    <v>       0.00000000       0.33328100       0.00139100 </v>
    <v>       0.50000000       0.16602100       0.00000400 </v>
    <v>       0.50000000       0.83397900       0.00000400 </v>
    <v>       0.50000000       0.66602100       0.50000400 </v>
    <v>       0.50000000       0.32938300       0.50000400 </v>
    <v>       0.00000000       0.00000000       0.01216200 </v>
    <v>       0.00000000       0.50000000       0.50593800 </v>
    <v>       0.50602900       0.00000000       0.47240000 </v>
    <v>       0.50000000       0.50000000       0.97240000 </v>
    <v>       0.00000000       0.00000000       0.31436200 </v>
    <v>       0.00000000       0.50000000       0.81436200 </v>
    <v>       0.00497400       0.16816900       0.20329900 </v>
    <v>       0.00000000       0.83183100       0.20329900 </v>
    <v>       0.00000000       0.66816900       0.70329900 </v>
    <v>       0.00000000       0.32571000       0.70329900 </v>
    <v>       0.00000000       0.16838200       0.79934600 </v>
    <v>       0.00000000       0.83161800       0.79934600 </v>
    <v>       0.00000000       0.66838200       0.30805100 </v>
    <v>       0.00000000       0.33161800       0.29934600 </v>
    <v>       0.50000000       0.06837200       0.99633700 </v>
    <v>       0.50000000       0.93162800       0.99633700 </v>
    <v>       0.49407000       0.56837200       0.48900000 </v>
    <v>       0.50000000       0.43162800       0.49633700 </v>
    <v>       0.50000000       0.09818400       0.50567900 </v>
    <v>       0.50000000       0.90181600       0.50567900 </v>
    <v>       0.50000000       0.59818400       0.00567900 </v>
    <v>       0.50000000       0.40181600       0.00567900 </v>
    <v>       0.50000000       0.23406000       0.50152500 </v>
    <v>       0.50000000       0.76594000       0.50152500 </v>
    <v>       0.50000000       0.73406000       0.00152500 </v>
    <v>       0.49785500       0.26594000       0.00152500 </v>
    <v>       0.00000000       0.00000000       0.69474100 </v>
    <v>       0.99532000       0.50000000       0.19474100 </v>
   </varray>
  </structure>
  <varray name="forces" >
   <v>       0.05157160      -0.14927961       0.08143802 </v>
   <v>      -0.01639806       0.09302075       0.10113185 </v>
   <v>      -0.00593009      -0.10118998       0.12895926 </v>
   <v>      -0.02108246      -0.08380041       0.06474456 </v>
   <v>       0.04536480       0.27807230       0.06157419 </v>
   <v>       0.00318202      -0.26962536       0.06295576 </v>
   <v>      -0.04484402       0.28105337       0.30621184 </v>
   <v>      -0.00030623       0.31877359       0.05842077 </v>
   <v>      -0.08574477      -0.00085775       1.00331549 </v>
   <v>      -0.14115084      -0.07824691       1.01748688 </v>
   <v>      -0.19025161      -0.00222412       0.12131665 </v>
   <v>      -0.02916196      -0.01104553       0.04269003 </v>
   <v>       0.16703773      -0.00150440      -1.13386499 </v>
   <v>       0.08255929       0.00920495      -1.01105526 </v>
   <v>      -0.11987130      -0.18865677      -0.20177237 </v>
   <v>      -0.02276219       0.18747324      -0.23049219 </v>
   <v>      -0.02425581      -0.19713104      -0.25958243 </v>
   <v>      -0.02322994       0.37378191      -0.22244199 </v>
   <v>      -0.02139728      -0.20092865       0.14556899 </v>
   <v>       0.02236853       0.18533318       0.15794960 </v>
   <v>       0.01387535      -0.17641044      -0.20786038 </v>
   <v>       0.02006267       0.11044141       0.17094884 </v>
   <v>      -0.00405593      -0.51870532       0.20700094 </v>
   <v>       0.01228780       0.51970899       0.20870561 </v>
   <v>       0.07656078      -0.56952933       0.28372861 </v>
   <v>       0.02912598       0.44479626       0.16787806 </v>
   <v>       0.06298960       0.81135789      -0.18438732 </v>
   <v>       0.03533142      -0.85095491      -0.19407865 </v>
   <v>       0.01380690       0.86396304      -0.17472806 </v>
   <v>      -0.00989529      -0.84584107      -0.22105272 </v>
   <v>      -0.00895664      -0.62270059      -0.05989459 </v>
   <v>       0.02595094       0.42259820      -0.02472701 </v>
   <v>      -0.01097857      -0.42101100      -0.00279572 </v>
   <v>       0.05121335       0.39129998       0.01525544 </v>
   <v>       0.02945946       0.00039195      -0.12892325 </v>
   <v>       0.03752479      -0.00162779      -0.14962447 </v>
  </varray>
  <varray name="stress" >
   <v>    -247.30633305       0.34122049       1.27834940 </v>
   <v>       0.34122074    -256.89996132      -0.36958787 </v>
   <v>       1.27834867      -0.36958663    -281.10156347 </v>
  </varray>
  <energy>
   <i name="e_fr_energy">   -189.22592809 </i>
   <i name="e_wo_entrp">   -189.23151711 </i>
   <i name="e_0_energy">      0.01676706 </i>
  </energy>
  <time name="totalsc">   70.25  100.40</time>
  <eigenvalues>
   <array>
    <dimension dim="1">band</dimension>
    <dimension dim="2">kpoint</dimension>
    <dimension dim="3">spin</dimension>
    <field>eigene</field>
    <field>occ</field>
    <set>
     <set comment="spin 1">
      <set comment="kpoint 1">
       <r>  -22.8170    1.0000 </r>
       <r>  -22.7386    1.0000 </r>
       <r>  -22.5900    1.0000 </r>
       <r>  -22.5567    1.0000 </r>
       <r>  -22.5245    1.0000 </r>
       <r>  -22.3793    1.0000 </r>
       <r>  -22.3324    1.0000 </r>
       <r>  -22.2832    1.0000 </r>
       <r>  -22.2785    1.0000 </r>
       <r>  -22.2740    1.0000 </r>
       <r>  -22.2696    1.0000 </r>
       <r>  -22.2598    1.0000 </r>
       <r>  -22.2307    1.0000 </r>
       <r>  -22.2141    1.0000 </r>
       <r>  -22.1847    1.0000 </r>
       <r>  -22.1603    1.0000 </r>
       <r>  -22.1548    1.0000 </r>
       <r>  -22.1330    1.0000 </r>
       <r>  -22.1114    1.0000 </r>
       <r>  -21.9561    1.0000 </r>
       <r>  -21.0367    1.0000 </r>
       <r>  -20.9440    1.0000 </r>
       <r>  -16.5430    1.0000 </r>
       <r>  -16.4539    1.0000 </r>
       <r>   -6.2006    1.0000 </r>
       <r>   -6.1045    1.0000 </r>
       <r>   -5.9070    1.0000 </r>
       <r>   -5.8416    1.0000 </r>
       <r>   -5.6863    1.0000 </r>
       <r>   -5.4799    1.0000 </r>
       <r>   -5.4232    1.0000 </r>
       <r>   -5.3196    1.0000 </r>
       <r>   -5.2689    1.0000 </r>
       <r>   -5.1130    1.0000 </r>
       <r>   -4.6691    1.0000 </r>
       <r>   -4.6050    1.0000 </r>
       <r>   -4.5664    1.0000 </r>
       <r>   -4.5051    1.0000 </r>
       <r>   -4.4446    1.0000 </r>
       <r>   -4.4225    1.0000 </r>
       <r>   -4.3804    1.0000 </r>
       <r>   -4.3566    1.0000 </r>
       <r>   -4.3326    1.0000 </r>
       <r>   -4.3156    1.0000 </r>
       <r>   -4.3080    1.0000 </r>
       <r>   -4.2919    1.0000 </r>
       <r>   -4.2588    1.0000 </r>
       <r>   -4.2331    1.0000 </r>
       <r>   -4.2181    1.0000 </r>
       <r>   -4.1970    1.0000 </r>
       <r>   -4.1921    1.0000 </r>
       <r>   -4.1876    1.0000 </r>
       <r>   -4.1593    1.0000 </r>
       <r>   -4.1440    1.0000 </r>
       <r>   -4.1419    1.0000 </r>
       <r>   -4.1052    1.0000 </r>
       <r>   -4.0747    1.0000 </r>
       <r>   -4.0603    1.0000 </r>
       <r>   -4.0343    1.0000 </r>
       <r>   -3.9740    1.0000 </r>
       <r>   -3.9376    1.0000 </r>
       <r>   -3.8678    1.0000 </r>
       <r>   -3.8501    1.0000 </r>
       <r>   -3.7170    1.0000 </r>
       <r>   -3.6039    1.0000 </r>
       <r>   -3.5711    1.0000 </r>
       <r>   -3.5646    1.0000 </r>
       <r>   -3.5231    1.0000 </r>
       <r>   -3.5130    1.0000 </r>
       <r>   -3.5069    1.0000 </r>
       <r>   -3.4212    1.0000 </r>
       <r>   -3.3686    1.0000 </r>
       <r>   -3.2834    1.0000 </r>
       <r>   -3.2592    1.0000 </r>
       <r>   -3.2532    1.0000 </r>
       <r>   -3.1891    1.0000 </r>
       <r>   -3.1790    1.0000 </r>
       <r>   -3.1689    1.0000 </r>
       <r>   -3.1652    1.0000 </r>
       <r>   -3.1083    1.0000 </r>
       <r>   -3.0771    1.0000 </r>
       <r>   -3.0336    1.0000 </r>
       <r>   -3.0087    1.0000 </r>
       <r>   -2.9628    1.0000 </r>
       <r>   -2.8749    1.0000 </r>
       <r>   -2.8315    1.0000 </r>
       <r>   -2.6762    1.0000 </r>
       <r>   -2.6125    1.0000 </r>
       <r>   -2.0598    1.0000 </r>
       <r>   -2.0418    1.0000 </r>
       <r>   -2.0317    1.0000 </r>
       <r>   -1.9746    1.0000 </r>
       <r>   -1.8090    1.0000 </r>
       <r>   -1.7931    1.0000 </r>
       <r>   -1.2736    1.0000 </r>
       <r>   -1.1995    1.0000 </r>
       <r>    0.8359    1.0000 </r>
       <r>    0.8735    1.0000 </r>
       <r>    0.9221    1.0000 </r>
       <r>    0.9495    1.0000 </r>
       <r>    0.9673    1.0000 </r>
       <r>    0.9844    1.0000 </r>
       <r>    0.9995    1.0000 </r>
       <r>    1.0141    1.0000 </r>
       <r>    1.0267    1.0000 </r>
       <r>    1.0475    1.0000 </r>
       <r>    1.0807    1.0000 </r>
       <r>    1.0886    1.0000 </r>
       <r>    1.1790    1.0000 </r>
       <r>    1.1814    1.0000 </r>
       <r>    1.1887    1.0000 </r>
       <r>    1.2259    1.0000 </r>
       <r>    1.2551    1.0001 </r>
       <r>    1.2555    1.0001 </r>
       <r>    1.2612    1.0001 </r>
       <r>    1.2729    1.0002 </r>
       <r>    1.2863    1.0002 </r>
       <r>    1.3161    1.0005 </r>
       <r>    1.3226    1.0005 </r>
       <r>    1.3326    1.0007 </r>
       <r>    1.3833    1.0021 </r>
       <r>    1.3909    1.0025 </r>
       <r>    1.3946    1.0027 </r>
       <r>    1.5012    1.0156 </r>
       <r>    1.5560    1.0278 </r>
       <r>    1.6157    1.0353 </r>
       <r>    1.6805    1.0067 </r>
       <r>    1.7049    0.9768 </r>
       <r>    1.7581    0.8624 </r>
       <r>    1.7950    0.7428 </r>
       <r>    1.8390    0.5687 </r>
       <r>    1.8485    0.5286 </r>
       <r>    1.9047    0.2977 </r>
       <r>    1.9731    0.0849 </r>
       <r>    1.9789    0.0720 </r>
       <r>    2.0670   -0.0302 </r>
       <r>    2.1129   -0.0349 </r>
       <r>    2.1317   -0.0324 </r>
       <r>    2.1344   -0.0319 </r>
       <r>    2.1573   -0.0272 </r>
       <r>    2.1660   -0.0252 </r>
       <r>    2.1739   -0.0234 </r>
       <r>    2.2431   -0.0097 </r>
       <r>    2.2664   -0.0066 </r>
       <r>    2.2711   -0.0061 </r>
       <r>    2.4050   -0.0004 </r>
       <r>    2.4071   -0.0003 </r>
       <r>    2.4094   -0.0003 </r>
       <r>    2.4493   -0.0001 </r>
       <r>    2.4565   -0.0001 </r>
       <r>    2.5785   -0.0000 </r>
       <r>    2.9280   -0.0000 </r>
       <r>    3.0995   -0.0000 </r>
       <r>    3.2239   -0.0000 </r>
       <r>    3.2982   -0.0000 </r>
       <r>    3.2985   -0.0000 </r>
       <r>    4.1165   -0.0000 </r>
       <r>    4.6037   -0.0000 </r>
       <r>    4.9361   -0.0000 </r>
       <r>    6.2444   -0.0000 </r>
      </set>
     </set>
    </set>
   </array>
  </eigenvalues>
  <separator name="orbital magnetization" >
   <v name="MAGDIPOLOUT">      0.00000000      0.00000000      0.00000000</v>
  </separator>
  <dos>
   <i name="efermi">      1.85529190 </i>
   <total>
    <array>
     <dimension dim="1">gridpoints</dimension>
     <dimension dim="2">spin</dimension>
     <field>energy</field>
     <field>total</field>
     <field>integrated</field>
     <set>
      <set comment="spin 1">
       <r>   -24.8170     0.0000     0.0000 </r>
       <r>   -24.7068     0.0000     0.0000 </r>
       <r>   -24.5966     0.0000     0.0000 </r>
       <r>   -24.4864    -0.0000    -0.0000 </r>
       <r>   -24.3762    -0.0000    -0.0000 </r>
       <r>   -24.2660    -0.0000    -0.0000 </r>
       <r>   -24.1558    -0.0000    -0.0000 </r>
       <r>   -24.0456    -0.0000    -0.0000 </r>
       <r>   -23.9354    -0.0000    -0.0000 </r>
       <r>   -23.8252    -0.0000    -0.0000 </r>
       <r>   -23.7150    -0.0000    -0.0000 </r>
       <r>   -23.6048    -0.0000    -0.0000 </r>
       <r>   -23.4946    -0.0002    -0.0000 </r>
       <r>   -23.3844    -0.0044    -0.0005 </r>
       <r>   -23.2742    -0.0567    -0.0067 </r>
       <r>   -23.1640    -0.3481    -0.0451 </r>
       <r>   -23.0538    -0.7468    -0.1274 </r>
       <r>   -22.9436     1.2767     0.0133 </r>
       <r>   -22.8334     8.5284     0.9532 </r>
       <r>   -22.7231    16.7845     2.8029 </r>
       <r>   -22.6129    21.8716     5.2132 </r>
       <r>   -22.5027    24.5522     7.9190 </r>
       <r>   -22.3925    35.6921    11.8524 </r>
       <r>   -22.2823    69.6165    19.5245 </r>
       <r>   -22.1721    91.6410    29.6238 </r>
       <r>   -22.0619    65.6310    36.8566 </r>
       <r>   -21.9517    25.0338    39.6155 </r>
       <r>   -21.8415     5.0017    40.1667 </r>
       <r>   -21.7313    -0.2272    40.1416 </r>
       <r>   -21.6211    -0.8618    40.0467 </r>
       <r>   -21.5109    -0.3953    40.0031 </r>
       <r>   -21.4007    -0.3232    39.9675 </r>
       <r>   -21.2905    -0.6545    39.8954 </r>
       <r>   -21.1803     0.9304    39.9979 </r>
       <r>   -21.0701     7.7847    40.8558 </r>
       <r>   -20.9599    14.6148    42.4664 </r>
       <r>   -20.8497    11.5779    43.7424 </r>
       <r>   -20.7395     3.3464    44.1112 </r>
       <r>   -20.6293    -0.4396    44.0627 </r>
       <r>   -20.5191    -0.4600    44.0120 </r>
       <r>   -20.4088    -0.0990    44.0011 </r>
       <r>   -20.2986    -0.0095    44.0001 </r>
       <r>   -20.1884    -0.0005    44.0000 </r>
       <r>   -20.0782    -0.0000    44.0000 </r>
       <r>   -19.9680    -0.0000    44.0000 </r>
       <r>   -19.8578    -0.0000    44.0000 </r>
       <r>   -19.7476    -0.0000    44.0000 </r>
       <r>   -19.6374    -0.0000    44.0000 </r>
       <r>   -19.5272     0.0000    44.0000 </r>
       <r>   -19.4170     0.0000    44.0000 </r>
       <r>   -19.3068     0.0000    44.0000 </r>
       <r>   -19.1966     0.0000    44.0000 </r>
       <r>   -19.0864     0.0000    44.0000 </r>
       <r>   -18.9762     0.0000    44.0000 </r>
       <r>   -18.8660     0.0000    44.0000 </r>
       <r>   -18.7558     0.0000    44.0000 </r>
       <r>   -18.6456     0.0000    44.0000 </r>
       <r>   -18.5354     0.0000    44.0000 </r>
       <r>   -18.4252     0.0000    44.0000 </r>
       <r>   -18.3150     0.0000    44.0000 </r>
       <r>   -18.2048    -0.0000    44.0000 </r>
       <r>   -18.0945    -0.0000    44.0000 </r>
       <r>   -17.9843    -0.0000    44.0000 </r>
       <r>   -17.8741    -0.0000    44.0000 </r>
       <r>   -17.7639    -0.0000    44.0000 </r>
       <r>   -17.6537    -0.0000    44.0000 </r>
       <r>   -17.5435    -0.0000    44.0000 </r>
       <r>   -17.4333    -0.0000    44.0000 </r>
       <r>   -17.3231    -0.0000    44.0000 </r>
       <r>   -17.2129    -0.0002    44.0000 </r>
       <r>   -17.1027    -0.0052    43.9994 </r>
       <r>   -16.9925    -0.0633    43.9924 </r>
       <r>   -16.8823    -0.3599    43.9528 </r>
       <r>   -16.7721    -0.6218    43.8843 </r>
       <r>   -16.6619     2.0234    44.1072 </r>
       <r>   -16.5517     9.9014    45.1984 </r>
       <r>   -16.4415    15.0162    46.8533 </r>
       <r>   -16.3313     9.6073    47.9120 </r>
       <r>   -16.2211     1.8411    48.1149 </r>
       <r>   -16.1109    -0.6349    48.0450 </r>
       <r>   -16.0007    -0.3444    48.0070 </r>
       <r>   -15.8905    -0.0588    48.0005 </r>
       <r>   -15.7802    -0.0047    48.0000 </r>
       <r>   -15.6700    -0.0002    48.0000 </r>
       <r>   -15.5598    -0.0000    48.0000 </r>
       <r>   -15.4496    -0.0000    48.0000 </r>
       <r>   -15.3394    -0.0000    48.0000 </r>
       <r>   -15.2292    -0.0000    48.0000 </r>
       <r>   -15.1190     0.0000    48.0000 </r>
       <r>   -15.0088     0.0000    48.0000 </r>
       <r>   -14.8986     0.0000    48.0000 </r>
       <r>   -14.7884     0.0000    48.0000 </r>
       <r>   -14.6782     0.0000    48.0000 </r>
       <r>   -14.5680     0.0000    48.0000 </r>
       <r>   -14.4578     0.0000    48.0000 </r>
       <r>   -14.3476     0.0000    48.0000 </r>
       <r>   -14.2374     0.0000    48.0000 </r>
       <r>   -14.1272     0.0000    48.0000 </r>
       <r>   -14.0170     0.0000    48.0000 </r>
       <r>   -13.9068     0.0000    48.0000 </r>
       <r>   -13.7966     0.0000    48.0000 </r>
       <r>   -13.6864     0.0000    48.0000 </r>
       <r>   -13.5762     0.0000    48.0000 </r>
       <r>   -13.4659     0.0000    48.0000 </r>
       <r>   -13.3557     0.0000    48.0000 </r>
       <r>   -13.2455     0.0000    48.0000 </r>
       <r>   -13.1353     0.0000    48.0000 </r>
       <r>   -13.0251     0.0000    48.0000 </r>
       <r>   -12.9149     0.0000    48.0000 </r>
       <r>   -12.8047     0.0000    48.0000 </r>
       <r>   -12.6945     0.0000    48.0000 </r>
       <r>   -12.5843     0.0000    48.0000 </r>
       <r>   -12.4741     0.0000    48.0000 </r>
       <r>   -12.3639     0.0000    48.0000 </r>
       <r>   -12.2537     0.0000    48.0000 </r>
       <r>   -12.1435     0.0000    48.0000 </r>
       <r>   -12.0333     0.0000    48.0000 </r>
       <r>   -11.9231     0.0000    48.0000 </r>
       <r>   -11.8129     0.0000    48.0000 </r>
       <r>   -11.7027     0.0000    48.0000 </r>
       <r>   -11.5925     0.0000    48.0000 </r>
       <r>   -11.4823     0.0000    48.0000 </r>
       <r>   -11.3721     0.0000    48.0000 </r>
       <r>   -11.2619     0.0000    48.0000 </r>
       <r>   -11.1516     0.0000    48.0000 </r>
       <r>   -11.0414     0.0000    48.0000 </r>
       <r>   -10.9312     0.0000    48.0000 </r>
       <r>   -10.8210     0.0000    48.0000 </r>
       <r>   -10.7108     0.0000    48.0000 </r>
       <r>   -10.6006     0.0000    48.0000 </r>
       <r>   -10.4904     0.0000    48.0000 </r>
       <r>   -10.3802     0.0000    48.0000 </r>
       <r>   -10.2700     0.0000    48.0000 </r>
       <r>   -10.1598     0.0000    48.0000 </r>
       <r>   -10.0496     0.0000    48.0000 </r>
       <r>    -9.9394     0.0000    48.0000 </r>
       <r>    -9.8292     0.0000    48.0000 </r>
       <r>    -9.7190     0.0000    48.0000 </r>
       <r>    -9.6088     0.0000    48.0000 </r>
       <r>    -9.4986     0.0000    48.0000 </r>
       <r>    -9.3884     0.0000    48.0000 </r>
       <r>    -9.2782     0.0000    48.0000 </r>
       <r>    -9.1680     0.0000    48.0000 </r>
       <r>    -9.0578     0.0000    48.0000 </r>
       <r>    -8.9476     0.0000    48.0000 </r>
       <r>    -8.8373     0.0000    48.0000 </r>
       <r>    -8.7271     0.0000    48.0000 </r>
       <r>    -8.6169     0.0000    48.0000 </r>
       <r>    -8.5067     0.0000    48.0000 </r>
       <r>    -8.3965     0.0000    48.0000 </r>
       <r>    -8.2863     0.0000    48.0000 </r>
       <r>    -8.1761     0.0000    48.0000 </r>
       <r>    -8.0659     0.0000    48.0000 </r>
       <r>    -7.9557     0.0000    48.0000 </r>
       <r>    -7.8455    -0.0000    48.0000 </r>
       <r>    -7.7353    -0.0000    48.0000 </r>
       <r>    -7.6251    -0.0000    48.0000 </r>
       <r>    -7.5149    -0.0000    48.0000 </r>
       <r>    -7.4047    -0.0000    48.0000 </r>
       <r>    -7.2945    -0.0000    48.0000 </r>
       <r>    -7.1843    -0.0000    48.0000 </r>
       <r>    -7.0741    -0.0000    48.0000 </r>
       <r>    -6.9639    -0.0000    48.0000 </r>
       <r>    -6.8537    -0.0004    48.0000 </r>
       <r>    -6.7435    -0.0078    47.9991 </r>
       <r>    -6.6333    -0.0854    47.9897 </r>
       <r>    -6.5230    -0.4225    47.9431 </r>
       <r>    -6.4128    -0.5245    47.8853 </r>
       <r>    -6.3026     2.6572    48.1782 </r>
       <r>    -6.1924    10.2085    49.3032 </r>
       <r>    -6.0822    14.6541    50.9181 </r>
       <r>    -5.9720    14.2860    52.4925 </r>
       <r>    -5.8618    16.0820    54.2648 </r>
       <r>    -5.7516    16.1604    56.0458 </r>
       <r>    -5.6414    12.0536    57.3741 </r>
       <r>    -5.5312    12.0180    58.6986 </r>
       <r>    -5.4210    19.2352    60.8184 </r>
       <r>    -5.3108    24.4358    63.5113 </r>
       <r>    -5.2006    21.1502    65.8422 </r>
       <r>    -5.0904    13.4336    67.3226 </r>
       <r>    -4.9802     5.3169    67.9086 </r>
       <r>    -4.8700    -0.3518    67.8698 </r>
       <r>    -4.7598     2.1763    68.1097 </r>
       <r>    -4.6496    14.9663    69.7590 </r>
       <r>    -4.5394    31.2448    73.2023 </r>
       <r>    -4.4292    50.5181    78.7697 </r>
       <r>    -4.3190    79.7764    87.5614 </r>
       <r>    -4.2087   105.6290    99.2022 </r>
       <r>    -4.0985   102.8401   110.5357 </r>
       <r>    -3.9883    72.8353   118.5625 </r>
       <r>    -3.8781    42.3140   123.2257 </r>
       <r>    -3.7679    25.0915   125.9909 </r>
       <r>    -3.6577    27.0193   128.9686 </r>
       <r>    -3.5475    44.9430   133.9215 </r>
       <r>    -3.4373    51.4176   139.5880 </r>
       <r>    -3.3271    47.3126   144.8020 </r>
       <r>    -3.2169    57.7651   151.1680 </r>
       <r>    -3.1067    67.8971   158.6506 </r>
       <r>    -2.9965    57.3302   164.9687 </r>
       <r>    -2.8863    37.8801   169.1432 </r>
       <r>    -2.7761    24.0865   171.7977 </r>
       <r>    -2.6659    18.6435   173.8523 </r>
       <r>    -2.5557    14.3594   175.4348 </r>
       <r>    -2.4455     5.5464   176.0460 </r>
       <r>    -2.3353    -1.3514   175.8971 </r>
       <r>    -2.2251    -0.2448   175.8701 </r>
       <r>    -2.1149    13.1700   177.3215 </r>
       <r>    -2.0047    29.9809   180.6255 </r>
       <r>    -1.8944    31.2169   184.0658 </r>
       <r>    -1.7842    22.3135   186.5248 </r>
       <r>    -1.6740    12.0079   187.8482 </r>
       <r>    -1.5638     2.0787   188.0772 </r>
       <r>    -1.4536    -0.9091   187.9771 </r>
       <r>    -1.3434     4.9773   188.5256 </r>
       <r>    -1.2332    13.8693   190.0540 </r>
       <r>    -1.1230    13.5902   191.5517 </r>
       <r>    -1.0128     4.9995   192.1027 </r>
       <r>    -0.9026    -0.1924   192.0815 </r>
       <r>    -0.7924    -0.5787   192.0177 </r>
       <r>    -0.6822    -0.1445   192.0018 </r>
       <r>    -0.5720    -0.0155   192.0001 </r>
       <r>    -0.4618    -0.0008   192.0000 </r>
       <r>    -0.3516    -0.0000   192.0000 </r>
       <r>    -0.2414    -0.0000   192.0000 </r>
       <r>    -0.1312    -0.0000   192.0000 </r>
       <r>    -0.0210    -0.0000   192.0000 </r>
       <r>     0.0892    -0.0000   192.0000 </r>
       <r>     0.1994    -0.0008   191.9999 </r>
       <r>     0.3096    -0.0176   191.9980 </r>
       <r>     0.4199    -0.1974   191.9762 </r>
       <r>     0.5301    -1.1047   191.8545 </r>
       <r>     0.6403    -2.4220   191.5876 </r>
       <r>     0.7505     3.0183   191.9202 </r>
       <r>     0.8607    27.9680   195.0024 </r>
       <r>     0.9709    65.1675   202.1842 </r>
       <r>     1.0811    85.7964   211.6393 </r>
       <r>     1.1913    93.6653   221.9617 </r>
       <r>     1.3015   102.8291   233.2940 </r>
       <r>     1.4117    86.2105   242.7948 </r>
       <r>     1.5219    49.7672   248.2793 </r>
       <r>     1.6321    34.2838   252.0576 </r>
       <r>     1.7423    41.2879   256.6077 </r>
       <r>     1.8525    47.7285   261.8676 </r>
       <r>     1.9627    47.2573   267.0756 </r>
       <r>     2.0729    55.0456   273.1419 </r>
       <r>     2.1831    69.2685   280.7756 </r>
       <r>     2.2933    67.0725   288.1673 </r>
       <r>     2.4035    55.9455   294.3328 </r>
       <r>     2.5137    43.7212   299.1511 </r>
       <r>     2.6239    22.4578   301.6260 </r>
       <r>     2.7342     4.8807   302.1639 </r>
       <r>     2.8444     1.9866   302.3828 </r>
       <r>     2.9546     7.2171   303.1782 </r>
       <r>     3.0648    12.0389   304.5049 </r>
       <r>     3.1750    18.5729   306.5518 </r>
       <r>     3.2852    25.2339   309.3326 </r>
       <r>     3.3954    19.8136   311.5162 </r>
       <r>     3.5056     6.1289   312.1916 </r>
       <r>     3.6158    -0.7215   312.1121 </r>
       <r>     3.7260    -0.9842   312.0037 </r>
       <r>     3.8362    -0.5902   311.9386 </r>
       <r>     3.9464     0.5237   311.9963 </r>
       <r>     4.0566     4.7215   312.5167 </r>
       <r>     4.1668     8.0401   313.4027 </r>
       <r>     4.2770     4.8598   313.9383 </r>
       <r>     4.3872     0.5831   314.0025 </r>
       <r>     4.4974     2.1534   314.2399 </r>
       <r>     4.6076     6.8444   314.9941 </r>
       <r>     4.7178     6.8480   315.7488 </r>
       <r>     4.8280     4.8600   316.2844 </r>
       <r>     4.9382     7.0174   317.0578 </r>
       <r>     5.0485     6.8399   317.8116 </r>
       <r>     5.1587     2.3184   318.0671 </r>
       <r>     5.2689    -0.2427   318.0403 </r>
       <r>     5.3791    -0.2977   318.0075 </r>
       <r>     5.4893    -0.0623   318.0006 </r>
       <r>     5.5995    -0.0061   318.0000 </r>
       <r>     5.7097    -0.0091   317.9990 </r>
       <r>     5.8199    -0.0864   317.9894 </r>
       <r>     5.9301    -0.3468   317.9512 </r>
       <r>     6.0403    -0.0497   317.9458 </r>
       <r>     6.1505     3.1625   318.2943 </r>
       <r>     6.2607     7.6519   319.1376 </r>
       <r>     6.3709     6.6300   319.8682 </r>
       <r>     6.4811     1.8344   320.0704 </r>
       <r>     6.5913    -0.3288   320.0341 </r>
       <r>     6.7015    -0.2578   320.0057 </r>
       <r>     6.8117    -0.0478   320.0005 </r>
       <r>     6.9219    -0.0039   320.0000 </r>
       <r>     7.0321    -0.0002   320.0000 </r>
       <r>     7.1423    -0.0000   320.0000 </r>
       <r>     7.2525    -0.0000   320.0000 </r>
       <r>     7.3628    -0.0000   320.0000 </r>
       <r>     7.4730    -0.0000   320.0000 </r>
       <r>     7.5832     0.0000   320.0000 </r>
       <r>     7.6934     0.0000   320.0000 </r>
       <r>     7.8036     0.0000   320.0000 </r>
       <r>     7.9138     0.0000   320.0000 </r>
       <r>     8.0240     0.0000   320.0000 </r>
       <r>     8.1342     0.0000   320.0000 </r>
       <r>     8.2444     0.0000   320.0000 </r>
      </set>
     </set>
    </array>
   </total>
  </dos>
 </calculation>
 <structure name="finalpos" >
  <crystal>
   <varray name="basis" >
    <v>       3.25262800      -0.01400200       0.00000000 </v>
    <v>       0.00000000      20.54938400       0.00000000 </v>
    <v>      -0.05092400       0.00000000       6.79221100 </v>
   </varray>
   <i name="volume">    453.98799923 </i>
   <varray name="rec_basis" >
    <v>       0.30744370       0.00000000       0.00230503 </v>
    <v>       0.00020949       0.04866326       0.00000157 </v>
    <v>       0.00000000       0.00000000       0.14722746 </v>
   </varray>
  </crystal>
  <varray name="positions" >
   <v>       0.00000000       0.16671900       0.50139100 </v>
   <v>       0.00000000       0.83328100       0.50101100 </v>
   <v>       0.00000000       0.66671900       0.00139100 </v>
   <v>       0.00000000       0.33328100       0.00139100 </v>
   <v>       0.50000000       0.16602100       0.00000400 </v>
   <v>       0.50000000       0.83397900       0.00000400 </v>
   <v>       0.50000000       0.66602100       0.50000400 </v>
   <v>       0.50000000       0.32938300       0.50000400 </v>
   <v>       0.00000000       0.00000000       0.01216200 </v>
   <v>       0.00000000       0.50000000       0.50593800 </v>
   <v>       0.50602900       0.00000000       0.47240000 </v>
   <v>       0.50000000       0.50000000       0.97240000 </v>
   <v>       0.00000000       0.00000000       0.31436200 </v>
   <v>       0.00000000       0.50000000       0.81436200 </v>
   <v>       0.00497400       0.16816900       0.20329900 </v>
   <v>       0.00000000       0.83183100       0.20329900 </v>
   <v>       0.00000000       0.66816900       0.70329900 </v>
   <v>       0.00000000       0.32571000       0.70329900 </v>
   <v>       0.00000000       0.16838200       0.79934600 </v>
   <v>       0.00000000       0.83161800       0.79934600 </v>
   <v>       0.00000000       0.66838200       0.30805100 </v>
   <v>       0.00000000       0.33161800       0.29934600 </v>
   <v>       0.50000000       0.06837200       0.99633700 </v>
   <v>       0.50000000       0.93162800       0.99633700 </v>
   <v>       0.49407000       0.56837200       0.48900000 </v>
   <v>       0.50000000       0.43162800       0.49633700 </v>
   <v>       0.50000000       0.09818400       0.50567900 </v>
   <v>       0.50000000       0.90181600       0.50567900 </v>
   <v>       0.50000000       0.59818400       0.00567900 </v>
   <v>       0.50000000       0.40181600       0.00567900 </v>
   <v>       0.50000000       0.23406000       0.50152500 </v>
   <v>       0.50000000       0.76594000       0.50152500 </v>
   <v>       0.50000000       0.73406000       0.00152500 </v>
   <v>       0.49785500       0.26594000       0.00152500 </v>
   <v>       0.00000000       0.00000000       0.69474100 </v>
   <v>       0.99532000       0.50000000       0.19474100 </v>
  </varray>
 </structure>
</modeling>
