<?xml version="1.0" encoding="ISO-8859-1"?>
<modeling>
 <generator>
  <i name="program" type="string">vasp </i>
  <i name="version" type="string">5.3.5  </i>
  <i name="subversion" type="string">31Mar14 (build Aug 29 2014 19:41:47) complex                          parallel </i>
  <i name="platform" type="string">LinuxIFC </i>
  <i name="date" type="string">2019 04 11 </i>
  <i name="time" type="string">13:01:42 </i>
 </generator>
 <incar>
  <i type="string" name="SYSTEM"> Fe4OF7_var_26</i>
  <i type="int" name="ISTART">     0</i>
  <i type="string" name="PREC">normal</i>
  <i type="string" name="ALGO"> VeryFast</i>
  <i type="int" name="ISPIN">     1</i>
  <i type="int" name="ICHARG">     2</i>
  <i type="int" name="NELM">   300</i>
  <i type="int" name="ISYM">     0</i>
  <i type="logical" name="LWAVE"> F  </i>
  <i type="int" name="NELM">   300</i>
 </incar>
 <kpoints>
  <generation param="Gamma">
   <v type="int" name="divisions">       1        1        1 </v>
   <v name="usershift">      0.00000000       0.00000000       0.00000000 </v>
   <v name="genvec1">      1.00000000       0.00000000       0.00000000 </v>
   <v name="genvec2">      0.00000000       1.00000000       0.00000000 </v>
   <v name="genvec3">     -0.00000000       0.00000000       1.00000000 </v>
   <v name="shift">      0.00000000       0.00000000       0.00000000 </v>
  </generation>
  <varray name="kpointlist" >
   <v>       0.00000000       0.00000000       0.00000000 </v>
  </varray>
  <varray name="weights" >
   <v>       1.00000000 </v>
  </varray>
 </kpoints>
 <parameters>
  <separator name="general" >
   <i type="string" name="SYSTEM">Fe4OF7_var_26</i>
   <i type="logical" name="LCOMPAT"> F  </i>
  </separator>
  <separator name="electronic" >
   <i type="string" name="PREC">normal</i>
   <i name="ENMAX">    400.00000000</i>
   <i name="ENAUG">    613.61400000</i>
   <i name="EDIFF">      0.00010000</i>
   <i type="int" name="IALGO">    48</i>
   <i type="int" name="IWAVPR">    10</i>
   <i type="int" name="NBANDS">   104</i>
   <i name="NELECT">    174.00000000</i>
   <i type="int" name="TURBO">     0</i>
   <i type="int" name="IRESTART">     0</i>
   <i type="int" name="NREBOOT">     0</i>
   <i type="int" name="NMIN">     0</i>
   <i name="EREF">      0.00000000</i>
   <separator name="electronic smearing" >
    <i type="int" name="ISMEAR">     1</i>
    <i name="SIGMA">      0.20000000</i>
    <i name="KSPACING">      0.50000000</i>
    <i type="logical" name="KGAMMA"> T  </i>
   </separator>
   <separator name="electronic projectors" >
    <i type="logical" name="LREAL"> F  </i>
    <v name="ROPT">      0.00000000      0.00000000      0.00000000</v>
    <i type="int" name="LMAXPAW">  -100</i>
    <i type="int" name="LMAXMIX">     2</i>
    <i type="logical" name="NLSPLINE"> F  </i>
   </separator>
   <separator name="electronic startup" >
    <i type="int" name="ISTART">     0</i>
    <i type="int" name="ICHARG">     2</i>
    <i type="int" name="INIWAV">     1</i>
   </separator>
   <separator name="electronic spin" >
    <i type="int" name="ISPIN">     1</i>
    <i type="logical" name="LNONCOLLINEAR"> F  </i>
    <v name="MAGMOM">      1.00000000      1.00000000      1.00000000      1.00000000      1.00000000      1.00000000      1.00000000      1.00000000      1.00000000      1.00000000      1.00000000      1.00000000      1.00000000      1.00000000      1.00000000      1.00000000      1.00000000      1.00000000      1.00000000      1.00000000
      1.00000000      1.00000000      1.00000000      1.00000000</v>
    <i name="NUPDOWN">     -1.00000000</i>
    <i type="logical" name="LSORBIT"> F  </i>
    <v name="SAXIS">      0.00000000      0.00000000      1.00000000</v>
    <i type="logical" name="LSPIRAL"> F  </i>
    <v name="QSPIRAL">      0.00000000      0.00000000      0.00000000</v>
    <i type="logical" name="LZEROZ"> F  </i>
   </separator>
   <separator name="electronic exchange-correlation" >
    <i type="logical" name="LASPH"> F  </i>
    <i type="logical" name="LMETAGGA"> F  </i>
   </separator>
   <separator name="electronic convergence" >
    <i type="int" name="NELM">   300</i>
    <i type="int" name="NELMDL">   -12</i>
    <i type="int" name="NELMIN">     2</i>
    <i name="ENINI">    400.00000000</i>
    <separator name="electronic convergence detail" >
     <i type="logical" name="LDIAG"> T  </i>
     <i type="logical" name="LSUBROT"> F  </i>
     <i name="WEIMIN">      0.00000000</i>
     <i name="EBREAK">      0.00000024</i>
     <i name="DEPER">      0.30000000</i>
     <i type="int" name="NRMM">     4</i>
     <i name="TIME">      0.40000000</i>
    </separator>
   </separator>
   <separator name="electronic mixer" >
    <i name="AMIX">      0.40000000</i>
    <i name="BMIX">      1.00000000</i>
    <i name="AMIN">      0.10000000</i>
    <i name="AMIX_MAG">      1.60000000</i>
    <i name="BMIX_MAG">      1.00000000</i>
    <separator name="electronic mixer details" >
     <i type="int" name="IMIX">     4</i>
     <i type="int" name="MAXMIX">   -45</i>
     <i name="WC">    100.00000000</i>
     <i type="int" name="INIMIX">     1</i>
     <i type="int" name="MIXPRE">     1</i>
     <i type="int" name="MREMOVE">     5</i>
    </separator>
   </separator>
   <separator name="electronic dipolcorrection" >
    <i type="logical" name="LDIPOL"> F  </i>
    <i type="logical" name="LMONO"> F  </i>
    <i type="int" name="IDIPOL">     0</i>
    <i name="EPSILON">      1.00000000</i>
    <v name="DIPOL">   -100.00000000   -100.00000000   -100.00000000</v>
    <i name="EFIELD">      0.00000000</i>
   </separator>
  </separator>
  <separator name="grids" >
   <i type="int" name="NGX">    28</i>
   <i type="int" name="NGY">    24</i>
   <i type="int" name="NGZ">    54</i>
   <i type="int" name="NGXF">    56</i>
   <i type="int" name="NGYF">    48</i>
   <i type="int" name="NGZF">   108</i>
   <i type="logical" name="ADDGRID"> F  </i>
  </separator>
  <separator name="ionic" >
   <i type="int" name="NSW">     0</i>
   <i type="int" name="IBRION">    -1</i>
   <i type="int" name="ISIF">     2</i>
   <i name="PSTRESS">      0.00000000</i>
   <i name="EDIFFG">      0.00100000</i>
   <i type="int" name="NFREE">     0</i>
   <i name="POTIM">      0.50000000</i>
   <i name="SMASS">     -3.00000000</i>
   <i name="SCALEE">      1.00000000</i>
  </separator>
  <separator name="ionic md" >
   <i name="TEBEG">      0.00010000</i>
   <i name="TEEND">      0.00010000</i>
   <i type="int" name="NBLOCK">     1</i>
   <i type="int" name="KBLOCK">     1</i>
   <i type="int" name="NPACO">   256</i>
   <i name="APACO">     16.00000000</i>
  </separator>
  <separator name="symmetry" >
   <i type="int" name="ISYM">     0</i>
   <i name="SYMPREC">      0.00001000</i>
  </separator>
  <separator name="dos" >
   <i type="logical" name="LORBIT"> F  </i>
   <v name="RWIGS">     -1.00000000     -1.00000000     -1.00000000</v>
   <i type="int" name="NEDOS">   301</i>
   <i name="EMIN">     10.00000000</i>
   <i name="EMAX">    -10.00000000</i>
   <i name="EFERMI">      0.00000000</i>
  </separator>
  <separator name="writing" >
   <i type="int" name="NWRITE">     2</i>
   <i type="logical" name="LWAVE"> F  </i>
   <i type="logical" name="LCHARG"> T  </i>
   <i type="logical" name="LPARD"> F  </i>
   <i type="logical" name="LVTOT"> F  </i>
   <i type="logical" name="LVHAR"> F  </i>
   <i type="logical" name="LELF"> F  </i>
   <i type="logical" name="LOPTICS"> F  </i>
   <v name="STM">      0.00000000      0.00000000      0.00000000      0.00000000      0.00000000      0.00000000      0.00000000</v>
  </separator>
  <separator name="performance" >
   <i type="int" name="NPAR">     4</i>
   <i type="int" name="NSIM">     4</i>
   <i type="int" name="NBLK">    -1</i>
   <i type="logical" name="LPLANE"> T  </i>
   <i type="logical" name="LSCALAPACK"> T  </i>
   <i type="logical" name="LSCAAWARE"> F  </i>
   <i type="logical" name="LSCALU"> F  </i>
   <i type="logical" name="LASYNC"> F  </i>
   <i type="logical" name="LORBITALREAL"> F  </i>
  </separator>
  <separator name="miscellaneous" >
   <i type="int" name="IDIOT">     3</i>
   <i type="logical" name="LMUSIC"> F  </i>
   <v name="POMASS">     55.84700000     16.00000000     18.99800000</v>
   <v name="DARWINR">      0.00000000      0.00000000      0.00000000</v>
   <v name="DARWINV">      1.00000000      1.00000000      1.00000000</v>
   <i type="logical" name="LCORR"> T  </i>
  </separator>
  <i type="logical" name="GGA_COMPAT"> T  </i>
  <i type="logical" name="LBERRY"> F  </i>
  <i type="int" name="ICORELEVEL">     0</i>
  <i type="logical" name="LDAU"> F  </i>
  <i type="int" name="I_CONSTRAINED_M">     0</i>
  <separator name="electronic exchange-correlation" >
   <i type="string" name="GGA">--</i>
   <i type="int" name="VOSKOWN">     0</i>
   <i type="logical" name="LHFCALC"> F  </i>
   <i type="string" name="PRECFOCK"></i>
   <i type="logical" name="LSYMGRAD"> F  </i>
   <i type="logical" name="LHFONE"> F  </i>
   <i type="logical" name="LRHFCALC"> F  </i>
   <i type="logical" name="LTHOMAS"> F  </i>
   <i type="logical" name="LMODELHF"> F  </i>
   <i name="ENCUT4O">     -1.00000000</i>
   <i type="int" name="EXXOEP">     0</i>
   <i type="int" name="FOURORBIT">     0</i>
   <i name="AEXX">      0.00000000</i>
   <i name="HFALPHA">      0.00000000</i>
   <i name="MCALPHA">      0.00000000</i>
   <i name="ALDAX">      1.00000000</i>
   <i name="AGGAX">      1.00000000</i>
   <i name="ALDAC">      1.00000000</i>
   <i name="AGGAC">      1.00000000</i>
   <i type="int" name="NKREDX">     1</i>
   <i type="int" name="NKREDY">     1</i>
   <i type="int" name="NKREDZ">     1</i>
   <i type="logical" name="SHIFTRED"> F  </i>
   <i type="logical" name="ODDONLY"> F  </i>
   <i type="logical" name="EVENONLY"> F  </i>
   <i type="int" name="LMAXFOCK">     0</i>
   <i type="int" name="NMAXFOCKAE">     0</i>
   <i type="logical" name="LFOCKAEDFT"> F  </i>
   <i name="HFSCREEN">      0.00000000</i>
   <i name="HFSCREENC">      0.00000000</i>
   <i type="int" name="NBANDSGWLOW">     0</i>
  </separator>
  <separator name="vdW DFT" >
   <i type="logical" name="LUSE_VDW"> F  </i>
   <i name="Zab_VDW">     -0.84910000</i>
   <i name="PARAM1">      0.12340000</i>
   <i name="PARAM2">      1.00000000</i>
   <i name="PARAM3">      0.00000000</i>
  </separator>
  <separator name="model GW" >
   <i type="int" name="MODEL_GW">     0</i>
   <i name="MODEL_EPS0">      7.46882445</i>
   <i name="MODEL_ALPHA">      1.00000000</i>
  </separator>
  <separator name="linear response parameters" >
   <i type="logical" name="LEPSILON"> F  </i>
   <i type="logical" name="LRPA"> F  </i>
   <i type="logical" name="LNABLA"> F  </i>
   <i type="logical" name="LVEL"> F  </i>
   <i type="int" name="KINTER">     0</i>
   <i name="CSHIFT">      0.10000000</i>
   <i name="OMEGAMAX">     -1.00000000</i>
   <i name="DEG_THRESHOLD">      0.00200000</i>
  </separator>
  <separator name="orbital magnetization" >
   <i type="logical" name="NUCIND"> F  </i>
   <v name="MAGPOS">      0.00000000      0.00000000      0.00000000</v>
   <i type="logical" name="LNICSALL"> T  </i>
   <i type="logical" name="ORBITALMAG"> F  </i>
   <i type="logical" name="LMAGBLOCH"> F  </i>
   <i type="logical" name="LCHIMAG"> F  </i>
   <i type="logical" name="LGAUGE"> T  </i>
   <i type="int" name="MAGATOM">     0</i>
   <v name="MAGDIPOL">      0.00000000      0.00000000      0.00000000</v>
   <v name="AVECCONST">      0.00000000      0.00000000      0.00000000</v>
  </separator>
  <separator name="response functions" >
   <i type="logical" name="LADDER"> F  </i>
   <i type="logical" name="LFXC"> F  </i>
   <i type="logical" name="LHARTREE"> T  </i>
   <i type="int" name="IBSE">     0</i>
   <i type="logical" name="LTCTE"> F  </i>
   <i type="logical" name="LTETE"> F  </i>
   <i type="logical" name="LTRIPLET"> F  </i>
   <i type="logical" name="LFXCEPS"> F  </i>
   <i type="logical" name="LFXHEG"> F  </i>
   <i type="logical" name="L2ORDER"> F  </i>
   <i type="logical" name="LUSEW"> F  </i>
   <i name="ENCUTGW">     -2.00000000</i>
   <i name="ENCUTGWSOFT">     -2.00000000</i>
   <i name="ENCUTLF">     -1.00000000</i>
   <i type="int" name="LMAXMP2">    -1</i>
   <i name="SCISSOR">      0.00000000</i>
   <i type="int" name="NOMEGA">     0</i>
   <i type="int" name="NOMEGAR">     0</i>
   <i type="int" name="NBANDSGW">    -1</i>
   <i type="int" name="NBANDSO">    -1</i>
   <i type="int" name="NBANDSV">    -1</i>
   <i type="int" name="NELM">   300</i>
   <i type="int" name="DIM">     3</i>
   <i type="int" name="ANTIRES">     0</i>
   <i name="OMEGAMAX">    -30.00000000</i>
   <i name="OMEGAMIN">    -30.00000000</i>
   <i name="OMEGATL">   -200.00000000</i>
   <i type="int" name="OMEGAGRID">     0</i>
   <i name="CSHIFT">     -0.10000000</i>
   <i type="logical" name="SELFENERGY"> F  </i>
   <i type="logical" name="LSPECTRAL"> F  </i>
   <i type="logical" name="ODDONLYGW"> F  </i>
   <i type="logical" name="EVENONLYGW"> F  </i>
   <i type="int" name="NKREDLFX">     1</i>
   <i type="int" name="NKREDLFY">     1</i>
   <i type="int" name="NKREDLFZ">     1</i>
   <i type="int" name="MAXMEM">  1800</i>
   <i type="int" name="TELESCOPE">     0</i>
   <i type="int" name="TAUPAR">     1</i>
  </separator>
  <separator name="External order field" >
   <i name="OFIELD_KAPPA">      0.00000000</i>
   <v name="OFIELD_K">      0.00000000      0.00000000      0.00000000</v>
   <i name="OFIELD_Q6_NEAR">      0.00000000</i>
   <i name="OFIELD_Q6_FAR">      0.00000000</i>
   <i name="OFIELD_A">      0.00000000</i>
  </separator>
 </parameters>
 <atominfo>
  <atoms>      24 </atoms>
  <types>       3 </types>
  <array name="atoms" >
   <dimension dim="1">ion</dimension>
   <field type="string">element</field>
   <field type="int">atomtype</field>
   <set>
    <rc><c>Fe</c><c>   1</c></rc>
    <rc><c>Fe</c><c>   1</c></rc>
    <rc><c>Fe</c><c>   1</c></rc>
    <rc><c>Fe</c><c>   1</c></rc>
    <rc><c>Fe</c><c>   1</c></rc>
    <rc><c>Fe</c><c>   1</c></rc>
    <rc><c>Fe</c><c>   1</c></rc>
    <rc><c>Fe</c><c>   1</c></rc>
    <rc><c>O </c><c>   2</c></rc>
    <rc><c>O </c><c>   2</c></rc>
    <rc><c>F </c><c>   3</c></rc>
    <rc><c>F </c><c>   3</c></rc>
    <rc><c>F </c><c>   3</c></rc>
    <rc><c>F </c><c>   3</c></rc>
    <rc><c>F </c><c>   3</c></rc>
    <rc><c>F </c><c>   3</c></rc>
    <rc><c>F </c><c>   3</c></rc>
    <rc><c>F </c><c>   3</c></rc>
    <rc><c>F </c><c>   3</c></rc>
    <rc><c>F </c><c>   3</c></rc>
    <rc><c>F </c><c>   3</c></rc>
    <rc><c>F </c><c>   3</c></rc>
    <rc><c>F </c><c>   3</c></rc>
    <rc><c>F </c><c>   3</c></rc>
   </set>
  </array>
  <array name="atomtypes" >
   <dimension dim="1">type</dimension>
   <field type="int">atomspertype</field>
   <field type="string">element</field>
   <field>mass</field>
   <field>valence</field>
   <field type="string">pseudopotential</field>
   <set>
    <rc><c>   8</c><c>Fe</c><c>     55.84700000</c><c>      8.00000000</c><c>  PAW_PBE Fe 06Sep2000                  </c></rc>
    <rc><c>   2</c><c>O </c><c>     16.00000000</c><c>      6.00000000</c><c>  PAW_PBE O 08Apr2002                   </c></rc>
    <rc><c>  14</c><c>F </c><c>     18.99800000</c><c>      7.00000000</c><c>  PAW_PBE F 08Apr2002                   </c></rc>
   </set>
  </array>
 </atominfo>
 <structure name="initialpos" >
  <crystal>
   <varray name="basis" >
    <v>       5.73591900       0.00000000      -0.79026700 </v>
    <v>       0.00000000       4.78544200       0.00000000 </v>
    <v>       0.00000000       0.00000000      10.88396600 </v>
   </varray>
   <i name="volume">    298.75297805 </i>
   <varray name="rec_basis" >
    <v>       0.17433998       0.00000000       0.00000000 </v>
    <v>       0.00000000       0.20896711       0.00000000 </v>
    <v>       0.01265854       0.00000000       0.09187827 </v>
   </varray>
  </crystal>
  <varray name="positions" >
   <v>       0.24699400       0.24850600       0.74623300 </v>
   <v>       0.25396300       0.75149400       0.24623300 </v>
   <v>       0.51485700       0.24497600       0.49879200 </v>
   <v>       0.51485700       0.75502400       0.99879200 </v>
   <v>       0.75373900       0.23127500       0.26486200 </v>
   <v>       0.75373900       0.77278800       0.76486200 </v>
   <v>       0.99045900       0.24174000       0.99652900 </v>
   <v>       0.99045900       0.75862800       0.49652900 </v>
   <v>       0.77312100       0.05847800       0.41725200 </v>
   <v>       0.77857200       0.94152200       0.91725200 </v>
   <v>       0.01370000       0.05755600       0.18278600 </v>
   <v>       0.01370000       0.93686400       0.68278600 </v>
   <v>       0.22224900       0.44944100       0.56360300 </v>
   <v>       0.21839800       0.55055900       0.07080400 </v>
   <v>       0.27923300       0.05174700       0.92611600 </v>
   <v>       0.27923300       0.94825300       0.42203700 </v>
   <v>       0.48187500       0.45353000       0.31584000 </v>
   <v>       0.48172500       0.54647000       0.81584000 </v>
   <v>       0.52253600       0.03560000       0.67416600 </v>
   <v>       0.52253600       0.96440000       0.17416600 </v>
   <v>       0.72670400       0.44302000       0.09109400 </v>
   <v>       0.72235300       0.55698000       0.59109400 </v>
   <v>       0.97343300       0.45650500       0.81960400 </v>
   <v>       0.96859400       0.54349500       0.32535500 </v>
  </varray>
 </structure>
 <calculation>
  <scstep>
   <time name="diag">    0.09    0.13</time>
   <time name="diis">    0.13    0.21</time>
   <time name="orth">    0.01    0.02</time>
   <time name="total">    0.41    0.60</time>
   <energy>
    <i name="alphaZ">    634.09262729 </i>
    <i name="ewald"> -10613.49217353 </i>
    <i name="hartreedc">  -4389.01322961 </i>
    <i name="XCdc">    595.49585664 </i>
    <i name="pawpsdc">  12680.77512887 </i>
    <i name="pawaedc"> -12817.41364524 </i>
    <i name="eentropy">     -0.05096127 </i>
    <i name="bandstr">   1175.07304425 </i>
    <i name="atom">  14851.27451460 </i>
    <i name="e_fr_energy">   2116.74116199 </i>
    <i name="e_wo_entrp">   2116.79212327 </i>
    <i name="e_0_energy">   2116.75814909 </i>
   </energy>
  </scstep>
  <scstep>
   <time name="diag">    0.19    0.34</time>
   <time name="diis">    0.14    0.18</time>
   <time name="orth">    0.04    0.05</time>
   <time name="total">    0.36    0.58</time>
   <energy>
    <i name="e_fr_energy">    653.44613365 </i>
    <i name="e_wo_entrp">    653.42040134 </i>
    <i name="e_0_energy">    653.43755621 </i>
   </energy>
  </scstep>
  <scstep>
   <time name="diag">    0.19    0.24</time>
   <time name="diis">    0.16    0.17</time>
   <time name="orth">    0.04    0.04</time>
   <time name="total">    0.39    0.45</time>
   <energy>
    <i name="e_fr_energy">    222.58256903 </i>
    <i name="e_wo_entrp">    222.81468746 </i>
    <i name="e_0_energy">    222.65994184 </i>
   </energy>
  </scstep>
  <scstep>
   <time name="diag">    0.15    0.15</time>
   <time name="diis">    0.14    0.25</time>
   <time name="orth">    0.03    0.06</time>
   <time name="total">    0.33    0.46</time>
   <energy>
    <i name="e_fr_energy">     38.11035281 </i>
    <i name="e_wo_entrp">     38.07933952 </i>
    <i name="e_0_energy">     38.10001504 </i>
   </energy>
  </scstep>
  <scstep>
   <time name="diag">    0.30    0.30</time>
   <time name="diis">    0.20    0.20</time>
   <time name="orth">    0.02    0.02</time>
   <time name="total">    0.52    0.52</time>
   <energy>
    <i name="e_fr_energy">    -65.04999814 </i>
    <i name="e_wo_entrp">    -65.04902691 </i>
    <i name="e_0_energy">    -65.04967439 </i>
   </energy>
  </scstep>
  <scstep>
   <time name="diag">    0.07    0.07</time>
   <time name="diis">    0.11    0.12</time>
   <time name="orth">    0.01    0.02</time>
   <time name="total">    0.20    0.22</time>
   <energy>
    <i name="e_fr_energy">   -111.58894136 </i>
    <i name="e_wo_entrp">   -111.59542256 </i>
    <i name="e_0_energy">   -111.59110176 </i>
   </energy>
  </scstep>
  <scstep>
   <time name="diag">    0.08    0.15</time>
   <time name="diis">    0.09    0.11</time>
   <time name="orth">    0.01    0.02</time>
   <time name="total">    0.18    0.29</time>
   <energy>
    <i name="e_fr_energy">   -135.68242453 </i>
    <i name="e_wo_entrp">   -135.72409638 </i>
    <i name="e_0_energy">   -135.69631515 </i>
   </energy>
  </scstep>
  <scstep>
   <time name="diag">    0.06    0.10</time>
   <time name="diis">    0.09    0.18</time>
   <time name="orth">    0.01    0.01</time>
   <time name="total">    0.16    0.29</time>
   <energy>
    <i name="e_fr_energy">   -145.58401112 </i>
    <i name="e_wo_entrp">   -145.63520356 </i>
    <i name="e_0_energy">   -145.60107527 </i>
   </energy>
  </scstep>
  <scstep>
   <time name="diag">    0.04    0.07</time>
   <time name="diis">    0.35    0.48</time>
   <time name="orth">    0.01    0.01</time>
   <time name="total">    0.40    0.56</time>
   <energy>
    <i name="e_fr_energy">   -155.44811900 </i>
    <i name="e_wo_entrp">   -155.50892385 </i>
    <i name="e_0_energy">   -155.46838728 </i>
   </energy>
  </scstep>
  <scstep>
   <time name="diag">    0.08    0.08</time>
   <time name="diis">    0.31    0.46</time>
   <time name="orth">    0.01    0.02</time>
   <time name="total">    0.40    0.57</time>
   <energy>
    <i name="e_fr_energy">   -155.63897899 </i>
    <i name="e_wo_entrp">   -155.67945087 </i>
    <i name="e_0_energy">   -155.65246962 </i>
   </energy>
  </scstep>
  <scstep>
   <time name="diag">    0.04    0.04</time>
   <time name="diis">    0.33    0.46</time>
   <time name="orth">    0.05    0.09</time>
   <time name="total">    0.42    0.60</time>
   <energy>
    <i name="e_fr_energy">   -155.82528995 </i>
    <i name="e_wo_entrp">   -155.85486912 </i>
    <i name="e_0_energy">   -155.83514967 </i>
   </energy>
  </scstep>
  <scstep>
   <time name="diag">    0.07    0.10</time>
   <time name="diis">    0.25    0.35</time>
   <time name="orth">    0.01    0.03</time>
   <time name="total">    0.38    0.56</time>
   <energy>
    <i name="e_fr_energy">   -155.96388090 </i>
    <i name="e_wo_entrp">   -155.99555946 </i>
    <i name="e_0_energy">   -155.97444042 </i>
   </energy>
  </scstep>
  <scstep>
   <time name="diag">    0.17    0.17</time>
   <time name="diis">    0.32    0.38</time>
   <time name="orth">    0.01    0.01</time>
   <time name="total">    0.62    0.71</time>
   <energy>
    <i name="e_fr_energy">   -149.77169423 </i>
    <i name="e_wo_entrp">   -149.74603589 </i>
    <i name="e_0_energy">   -149.76314145 </i>
   </energy>
  </scstep>
  <scstep>
   <time name="diag">    0.06    0.06</time>
   <time name="diis">    0.24    0.36</time>
   <time name="orth">    0.01    0.01</time>
   <time name="total">    0.45    0.61</time>
   <energy>
    <i name="e_fr_energy">   -178.89611914 </i>
    <i name="e_wo_entrp">   -178.81162805 </i>
    <i name="e_0_energy">   -178.86795544 </i>
   </energy>
  </scstep>
  <scstep>
   <time name="diag">    0.10    0.15</time>
   <time name="diis">    0.24    0.43</time>
   <time name="orth">    0.01    0.01</time>
   <time name="total">    0.44    0.72</time>
   <energy>
    <i name="e_fr_energy">   -141.92161968 </i>
    <i name="e_wo_entrp">   -141.92276536 </i>
    <i name="e_0_energy">   -141.92200157 </i>
   </energy>
  </scstep>
  <scstep>
   <time name="diag">    0.05    0.07</time>
   <time name="diis">    0.22    0.33</time>
   <time name="orth">    0.01    0.02</time>
   <time name="total">    0.37    0.54</time>
   <energy>
    <i name="e_fr_energy">   -139.00896139 </i>
    <i name="e_wo_entrp">   -138.92138441 </i>
    <i name="e_0_energy">   -138.97976907 </i>
   </energy>
  </scstep>
  <scstep>
   <time name="diag">    0.03    0.06</time>
   <time name="diis">    0.24    0.39</time>
   <time name="orth">    0.02    0.02</time>
   <time name="total">    0.35    0.57</time>
   <energy>
    <i name="e_fr_energy">   -157.24607839 </i>
    <i name="e_wo_entrp">   -157.31660923 </i>
    <i name="e_0_energy">   -157.26958867 </i>
   </energy>
  </scstep>
  <scstep>
   <time name="diag">    0.05    0.09</time>
   <time name="diis">    0.26    0.39</time>
   <time name="orth">    0.03    0.06</time>
   <time name="total">    0.44    0.66</time>
   <energy>
    <i name="e_fr_energy">   -145.03839102 </i>
    <i name="e_wo_entrp">   -144.89346368 </i>
    <i name="e_0_energy">   -144.99008190 </i>
   </energy>
  </scstep>
  <scstep>
   <time name="diag">    0.16    0.30</time>
   <time name="diis">    0.21    0.40</time>
   <time name="orth">    0.01    0.04</time>
   <time name="total">    0.66    1.15</time>
   <energy>
    <i name="e_fr_energy">   -146.46464718 </i>
    <i name="e_wo_entrp">   -146.46348496 </i>
    <i name="e_0_energy">   -146.46425978 </i>
   </energy>
  </scstep>
  <scstep>
   <time name="diag">    0.05    0.08</time>
   <time name="diis">    0.24    0.38</time>
   <time name="orth">    0.03    0.06</time>
   <time name="total">    0.41    0.63</time>
   <energy>
    <i name="e_fr_energy">   -154.47407602 </i>
    <i name="e_wo_entrp">   -154.45032285 </i>
    <i name="e_0_energy">   -154.46615829 </i>
   </energy>
  </scstep>
  <scstep>
   <time name="diag">    0.05    0.07</time>
   <time name="diis">    0.23    0.39</time>
   <time name="orth">    0.01    0.02</time>
   <time name="total">    0.37    0.64</time>
   <energy>
    <i name="e_fr_energy">   -141.15291497 </i>
    <i name="e_wo_entrp">   -141.14912774 </i>
    <i name="e_0_energy">   -141.15165256 </i>
   </energy>
  </scstep>
  <scstep>
   <time name="diag">    0.05    0.09</time>
   <time name="diis">    0.32    0.42</time>
   <time name="orth">    0.02    0.02</time>
   <time name="total">    0.46    0.64</time>
   <energy>
    <i name="e_fr_energy">   -139.75571311 </i>
    <i name="e_wo_entrp">   -139.71379623 </i>
    <i name="e_0_energy">   -139.74174082 </i>
   </energy>
  </scstep>
  <scstep>
   <time name="diag">    0.14    0.17</time>
   <time name="diis">    0.22    0.36</time>
   <time name="orth">    0.02    0.02</time>
   <time name="total">    0.49    0.72</time>
   <energy>
    <i name="e_fr_energy">   -137.51811608 </i>
    <i name="e_wo_entrp">   -137.43372019 </i>
    <i name="e_0_energy">   -137.48998411 </i>
   </energy>
  </scstep>
  <scstep>
   <time name="diag">    0.12    0.18</time>
   <time name="diis">    0.21    0.39</time>
   <time name="orth">    0.06    0.06</time>
   <time name="total">    0.47    0.74</time>
   <energy>
    <i name="e_fr_energy">   -133.57284918 </i>
    <i name="e_wo_entrp">   -133.63037131 </i>
    <i name="e_0_energy">   -133.59202322 </i>
   </energy>
  </scstep>
  <scstep>
   <time name="diag">    0.03    0.06</time>
   <time name="diis">    0.24    0.38</time>
   <time name="orth">    0.02    0.06</time>
   <time name="total">    0.35    0.57</time>
   <energy>
    <i name="e_fr_energy">   -132.55355626 </i>
    <i name="e_wo_entrp">   -132.53934486 </i>
    <i name="e_0_energy">   -132.54881912 </i>
   </energy>
  </scstep>
  <scstep>
   <time name="diag">    0.08    0.11</time>
   <time name="diis">    0.30    0.43</time>
   <time name="orth">    0.08    0.14</time>
   <time name="total">    0.52    0.84</time>
   <energy>
    <i name="e_fr_energy">   -132.32496691 </i>
    <i name="e_wo_entrp">   -132.31378745 </i>
    <i name="e_0_energy">   -132.32124042 </i>
   </energy>
  </scstep>
  <scstep>
   <time name="diag">    0.04    0.08</time>
   <time name="diis">    0.28    0.35</time>
   <time name="orth">    0.02    0.02</time>
   <time name="total">    0.45    0.58</time>
   <energy>
    <i name="e_fr_energy">   -132.30107561 </i>
    <i name="e_wo_entrp">   -132.27877874 </i>
    <i name="e_0_energy">   -132.29364332 </i>
   </energy>
  </scstep>
  <scstep>
   <time name="diag">    0.11    0.18</time>
   <time name="diis">    0.28    0.33</time>
   <time name="orth">    0.02    0.02</time>
   <time name="total">    0.53    0.66</time>
   <energy>
    <i name="e_fr_energy">   -132.40899997 </i>
    <i name="e_wo_entrp">   -132.41050764 </i>
    <i name="e_0_energy">   -132.40950252 </i>
   </energy>
  </scstep>
  <scstep>
   <time name="diag">    0.11    0.15</time>
   <time name="diis">    0.29    0.42</time>
   <time name="orth">    0.06    0.06</time>
   <time name="total">    0.67    0.89</time>
   <energy>
    <i name="e_fr_energy">   -132.46785818 </i>
    <i name="e_wo_entrp">   -132.45888331 </i>
    <i name="e_0_energy">   -132.46486656 </i>
   </energy>
  </scstep>
  <scstep>
   <time name="diag">    0.07    0.07</time>
   <time name="diis">    0.37    0.43</time>
   <time name="orth">    0.01    0.01</time>
   <time name="total">    0.56    0.67</time>
   <energy>
    <i name="e_fr_energy">   -132.47295258 </i>
    <i name="e_wo_entrp">   -132.49975251 </i>
    <i name="e_0_energy">   -132.48188589 </i>
   </energy>
  </scstep>
  <scstep>
   <time name="diag">    0.09    0.09</time>
   <time name="diis">    0.36    0.41</time>
   <time name="orth">    0.02    0.05</time>
   <time name="total">    0.59    0.69</time>
   <energy>
    <i name="e_fr_energy">   -132.46861222 </i>
    <i name="e_wo_entrp">   -132.48845417 </i>
    <i name="e_0_energy">   -132.47522620 </i>
   </energy>
  </scstep>
  <scstep>
   <time name="diag">    0.11    0.19</time>
   <time name="diis">    0.30    0.42</time>
   <time name="orth">    0.01    0.01</time>
   <time name="total">    0.51    0.76</time>
   <energy>
    <i name="e_fr_energy">   -132.46446361 </i>
    <i name="e_wo_entrp">   -132.47749126 </i>
    <i name="e_0_energy">   -132.46880616 </i>
   </energy>
  </scstep>
  <scstep>
   <time name="diag">    0.07    0.07</time>
   <time name="diis">    0.29    0.39</time>
   <time name="orth">    0.01    0.01</time>
   <time name="total">    0.46    0.65</time>
   <energy>
    <i name="e_fr_energy">   -132.46239730 </i>
    <i name="e_wo_entrp">   -132.47958331 </i>
    <i name="e_0_energy">   -132.46812597 </i>
   </energy>
  </scstep>
  <scstep>
   <time name="diag">    0.04    0.08</time>
   <time name="diis">    0.33    0.47</time>
   <time name="orth">    0.02    0.02</time>
   <time name="total">    0.47    0.69</time>
   <energy>
    <i name="e_fr_energy">   -132.46080854 </i>
    <i name="e_wo_entrp">   -132.47529329 </i>
    <i name="e_0_energy">   -132.46563679 </i>
   </energy>
  </scstep>
  <scstep>
   <time name="diag">    0.06    0.06</time>
   <time name="diis">    0.25    0.25</time>
   <time name="orth">    0.02    0.02</time>
   <time name="total">    0.44    0.44</time>
   <energy>
    <i name="e_fr_energy">   -132.46004484 </i>
    <i name="e_wo_entrp">   -132.47456342 </i>
    <i name="e_0_energy">   -132.46488436 </i>
   </energy>
  </scstep>
  <scstep>
   <time name="diag">    0.06    0.06</time>
   <time name="diis">    0.29    0.30</time>
   <time name="orth">    0.01    0.01</time>
   <time name="total">    0.45    0.45</time>
   <energy>
    <i name="e_fr_energy">   -132.46042805 </i>
    <i name="e_wo_entrp">   -132.47505022 </i>
    <i name="e_0_energy">   -132.46530211 </i>
   </energy>
  </scstep>
  <scstep>
   <time name="diag">    0.06    0.12</time>
   <time name="diis">    0.19    0.32</time>
   <time name="orth">    0.01    0.02</time>
   <time name="total">    0.32    0.58</time>
   <energy>
    <i name="e_fr_energy">   -132.45987902 </i>
    <i name="e_wo_entrp">   -132.47391706 </i>
    <i name="e_0_energy">   -132.46455837 </i>
   </energy>
  </scstep>
  <scstep>
   <time name="diag">    0.03    0.03</time>
   <time name="diis">    0.21    0.30</time>
   <time name="orth">    0.02    0.02</time>
   <time name="total">    0.34    0.43</time>
   <energy>
    <i name="e_fr_energy">   -132.46016425 </i>
    <i name="e_wo_entrp">   -132.47450695 </i>
    <i name="e_0_energy">   -132.46494515 </i>
   </energy>
  </scstep>
  <scstep>
   <time name="diag">    0.04    0.04</time>
   <time name="diis">    0.26    0.26</time>
   <time name="orth">    0.02    0.02</time>
   <time name="total">    0.41    0.41</time>
   <energy>
    <i name="e_fr_energy">   -132.46005617 </i>
    <i name="e_wo_entrp">   -132.47382822 </i>
    <i name="e_0_energy">   -132.46464686 </i>
   </energy>
  </scstep>
  <scstep>
   <time name="diag">    0.16    0.26</time>
   <time name="diis">    0.16    0.28</time>
   <time name="orth">    0.10    0.16</time>
   <time name="total">    0.55    0.85</time>
   <energy>
    <i name="e_fr_energy">   -132.46024792 </i>
    <i name="e_wo_entrp">   -132.47436497 </i>
    <i name="e_0_energy">   -132.46495360 </i>
   </energy>
  </scstep>
  <scstep>
   <time name="diag">    0.05    0.05</time>
   <time name="diis">    0.21    0.32</time>
   <time name="orth">    0.04    0.08</time>
   <time name="total">    0.43    0.63</time>
   <energy>
    <i name="alphaZ">    634.09262729 </i>
    <i name="ewald"> -10613.49217353 </i>
    <i name="hartreedc">  -4467.92523056 </i>
    <i name="XCdc">    604.70861878 </i>
    <i name="pawpsdc">  14869.50795154 </i>
    <i name="pawaedc"> -15010.21334498 </i>
    <i name="eentropy">      0.01377301 </i>
    <i name="bandstr">  -1000.42692979 </i>
    <i name="atom">  14851.27451460 </i>
    <i name="e_fr_energy">   -132.46019364 </i>
    <i name="e_wo_entrp">   -132.47396665 </i>
    <i name="e_0_energy">   -132.46478464 </i>
   </energy>
  </scstep>
  <structure>
   <crystal>
    <varray name="basis" >
     <v>       5.73591900       0.00000000      -0.79026700 </v>
     <v>       0.00000000       4.78544200       0.00000000 </v>
     <v>       0.00000000       0.00000000      10.88396600 </v>
    </varray>
    <i name="volume">    298.75297805 </i>
    <varray name="rec_basis" >
     <v>       0.17433998       0.00000000       0.00000000 </v>
     <v>       0.00000000       0.20896711       0.00000000 </v>
     <v>       0.01265854       0.00000000       0.09187827 </v>
    </varray>
   </crystal>
   <varray name="positions" >
    <v>       0.24699400       0.24850600       0.74623300 </v>
    <v>       0.25396300       0.75149400       0.24623300 </v>
    <v>       0.51485700       0.24497600       0.49879200 </v>
    <v>       0.51485700       0.75502400       0.99879200 </v>
    <v>       0.75373900       0.23127500       0.26486200 </v>
    <v>       0.75373900       0.77278800       0.76486200 </v>
    <v>       0.99045900       0.24174000       0.99652900 </v>
    <v>       0.99045900       0.75862800       0.49652900 </v>
    <v>       0.77312100       0.05847800       0.41725200 </v>
    <v>       0.77857200       0.94152200       0.91725200 </v>
    <v>       0.01370000       0.05755600       0.18278600 </v>
    <v>       0.01370000       0.93686400       0.68278600 </v>
    <v>       0.22224900       0.44944100       0.56360300 </v>
    <v>       0.21839800       0.55055900       0.07080400 </v>
    <v>       0.27923300       0.05174700       0.92611600 </v>
    <v>       0.27923300       0.94825300       0.42203700 </v>
    <v>       0.48187500       0.45353000       0.31584000 </v>
    <v>       0.48172500       0.54647000       0.81584000 </v>
    <v>       0.52253600       0.03560000       0.67416600 </v>
    <v>       0.52253600       0.96440000       0.17416600 </v>
    <v>       0.72670400       0.44302000       0.09109400 </v>
    <v>       0.72235300       0.55698000       0.59109400 </v>
    <v>       0.97343300       0.45650500       0.81960400 </v>
    <v>       0.96859400       0.54349500       0.32535500 </v>
   </varray>
  </structure>
  <varray name="forces" >
   <v>       0.14623653      -0.06367676      -0.24228302 </v>
   <v>      -0.22922300       0.13756532      -0.10032107 </v>
   <v>       0.85118277      -0.69658820      -0.97022123 </v>
   <v>       0.94864369       0.75769876      -0.75926073 </v>
   <v>       0.01452127       0.32878126      -0.00417330 </v>
   <v>       0.09142385      -0.58974609      -0.20228736 </v>
   <v>      -0.90525485      -1.24818109      -0.56186295 </v>
   <v>      -0.99464443       1.10458305      -0.82669077 </v>
   <v>      -0.30741670      -0.16446045       1.45960782 </v>
   <v>      -0.42799033       0.26448641       1.38437137 </v>
   <v>       0.38058668      -0.39371792       0.03242670 </v>
   <v>       0.36072147       0.58364676       0.00763106 </v>
   <v>       0.11623669      -0.22148163       0.65356920 </v>
   <v>       0.19387163       0.17701815       0.28633844 </v>
   <v>      -0.23682817       0.28693329      -0.22947138 </v>
   <v>      -0.21543931      -0.26633139      -0.08702798 </v>
   <v>      -0.19307773      -0.10754821       0.51655346 </v>
   <v>      -0.27218194       0.14509725       0.57360292 </v>
   <v>      -0.33018183       0.72753591       0.16353423 </v>
   <v>      -0.22478487      -0.69093454       0.11085465 </v>
   <v>       0.10428785       0.05437973      -0.89201679 </v>
   <v>       0.21491172      -0.05917505      -0.88282968 </v>
   <v>       0.40724580      -0.40786968       0.43274043 </v>
   <v>       0.50715319       0.34198511       0.13721596 </v>
  </varray>
  <varray name="stress" >
   <v>    -242.67951056       1.44246126      21.36972006 </v>
   <v>       1.44245983    -258.77441428      -2.44110808 </v>
   <v>      21.36972065      -2.44110687    -288.86325182 </v>
  </varray>
  <energy>
   <i name="e_fr_energy">   -132.46019364 </i>
   <i name="e_wo_entrp">   -132.46478464 </i>
   <i name="e_0_energy">      0.01377301 </i>
  </energy>
  <time name="totalsc">   19.11   26.97</time>
  <eigenvalues>
   <array>
    <dimension dim="1">band</dimension>
    <dimension dim="2">kpoint</dimension>
    <dimension dim="3">spin</dimension>
    <field>eigene</field>
    <field>occ</field>
    <set>
     <set comment="spin 1">
      <set comment="kpoint 1">
       <r>  -22.6770    1.0000 </r>
       <r>  -22.5990    1.0000 </r>
       <r>  -22.3618    1.0000 </r>
       <r>  -22.3396    1.0000 </r>
       <r>  -22.2982    1.0000 </r>
       <r>  -22.2687    1.0000 </r>
       <r>  -22.1891    1.0000 </r>
       <r>  -22.1702    1.0000 </r>
       <r>  -22.1274    1.0000 </r>
       <r>  -22.1082    1.0000 </r>
       <r>  -21.9414    1.0000 </r>
       <r>  -21.9171    1.0000 </r>
       <r>  -21.8502    1.0000 </r>
       <r>  -21.8157    1.0000 </r>
       <r>  -16.7473    1.0000 </r>
       <r>  -16.7075    1.0000 </r>
       <r>   -6.1089    1.0000 </r>
       <r>   -5.7538    1.0000 </r>
       <r>   -5.3586    1.0000 </r>
       <r>   -5.2222    1.0000 </r>
       <r>   -5.1771    1.0000 </r>
       <r>   -5.0325    1.0000 </r>
       <r>   -4.9753    1.0000 </r>
       <r>   -4.9216    1.0000 </r>
       <r>   -4.8616    1.0000 </r>
       <r>   -4.8303    1.0000 </r>
       <r>   -4.7151    1.0000 </r>
       <r>   -4.5918    1.0000 </r>
       <r>   -4.5414    1.0000 </r>
       <r>   -4.5152    1.0000 </r>
       <r>   -4.4182    1.0000 </r>
       <r>   -4.3935    1.0000 </r>
       <r>   -4.3228    1.0000 </r>
       <r>   -4.2960    1.0000 </r>
       <r>   -4.2809    1.0000 </r>
       <r>   -4.2220    1.0000 </r>
       <r>   -4.1958    1.0000 </r>
       <r>   -4.1392    1.0000 </r>
       <r>   -4.0421    1.0000 </r>
       <r>   -4.0100    1.0000 </r>
       <r>   -3.9832    1.0000 </r>
       <r>   -3.9269    1.0000 </r>
       <r>   -3.8793    1.0000 </r>
       <r>   -3.8720    1.0000 </r>
       <r>   -3.7077    1.0000 </r>
       <r>   -3.6348    1.0000 </r>
       <r>   -3.4325    1.0000 </r>
       <r>   -3.4060    1.0000 </r>
       <r>   -3.3131    1.0000 </r>
       <r>   -3.2358    1.0000 </r>
       <r>   -3.0795    1.0000 </r>
       <r>   -3.0339    1.0000 </r>
       <r>   -2.9912    1.0000 </r>
       <r>   -2.9393    1.0000 </r>
       <r>   -2.8065    1.0000 </r>
       <r>   -2.7324    1.0000 </r>
       <r>   -2.6874    1.0000 </r>
       <r>   -2.6626    1.0000 </r>
       <r>   -2.4790    1.0000 </r>
       <r>   -2.4351    1.0000 </r>
       <r>   -2.3785    1.0000 </r>
       <r>   -2.2829    1.0000 </r>
       <r>   -1.5845    1.0000 </r>
       <r>   -1.5247    1.0000 </r>
       <r>    0.9185    1.0000 </r>
       <r>    0.9351    1.0000 </r>
       <r>    1.0029    1.0000 </r>
       <r>    1.0084    1.0001 </r>
       <r>    1.0422    1.0001 </r>
       <r>    1.0481    1.0002 </r>
       <r>    1.0624    1.0002 </r>
       <r>    1.1021    1.0006 </r>
       <r>    1.1657    1.0026 </r>
       <r>    1.1866    1.0038 </r>
       <r>    1.2364    1.0091 </r>
       <r>    1.2551    1.0120 </r>
       <r>    1.3032    1.0219 </r>
       <r>    1.3045    1.0222 </r>
       <r>    1.3443    1.0310 </r>
       <r>    1.3985    1.0345 </r>
       <r>    1.4294    1.0246 </r>
       <r>    1.4348    1.0214 </r>
       <r>    1.4722    0.9850 </r>
       <r>    1.5106    0.9148 </r>
       <r>    1.5425    0.8288 </r>
       <r>    1.5575    0.7798 </r>
       <r>    1.5792    0.7013 </r>
       <r>    1.6611    0.3636 </r>
       <r>    1.6656    0.3455 </r>
       <r>    1.8049   -0.0083 </r>
       <r>    1.8815   -0.0352 </r>
       <r>    1.9223   -0.0290 </r>
       <r>    1.9621   -0.0199 </r>
       <r>    2.0410   -0.0065 </r>
       <r>    2.0798   -0.0032 </r>
       <r>    2.1322   -0.0011 </r>
       <r>    2.3116   -0.0000 </r>
       <r>    2.4443   -0.0000 </r>
       <r>    2.8122   -0.0000 </r>
       <r>    2.8613   -0.0000 </r>
       <r>    2.9262   -0.0000 </r>
       <r>    2.9826   -0.0000 </r>
       <r>    3.1944   -0.0000 </r>
       <r>    4.1876   -0.0000 </r>
      </set>
     </set>
    </set>
   </array>
  </eigenvalues>
  <separator name="orbital magnetization" >
   <v name="MAGDIPOLOUT">      0.00000000      0.00000000      0.00000000</v>
  </separator>
  <dos>
   <i name="efermi">      1.62834789 </i>
   <total>
    <array>
     <dimension dim="1">gridpoints</dimension>
     <dimension dim="2">spin</dimension>
     <field>energy</field>
     <field>total</field>
     <field>integrated</field>
     <set>
      <set comment="spin 1">
       <r>   -24.6770     0.0000     0.0000 </r>
       <r>   -24.5741     0.0000     0.0000 </r>
       <r>   -24.4712     0.0000     0.0000 </r>
       <r>   -24.3683    -0.0000    -0.0000 </r>
       <r>   -24.2654    -0.0000    -0.0000 </r>
       <r>   -24.1626    -0.0000    -0.0000 </r>
       <r>   -24.0597    -0.0000    -0.0000 </r>
       <r>   -23.9568    -0.0000    -0.0000 </r>
       <r>   -23.8539    -0.0000    -0.0000 </r>
       <r>   -23.7510    -0.0000    -0.0000 </r>
       <r>   -23.6481    -0.0000    -0.0000 </r>
       <r>   -23.5453    -0.0000    -0.0000 </r>
       <r>   -23.4424    -0.0000    -0.0000 </r>
       <r>   -23.3395    -0.0003    -0.0000 </r>
       <r>   -23.2366    -0.0057    -0.0006 </r>
       <r>   -23.1337    -0.0600    -0.0068 </r>
       <r>   -23.0309    -0.3281    -0.0405 </r>
       <r>   -22.9280    -0.7089    -0.1135 </r>
       <r>   -22.8251     0.8643    -0.0246 </r>
       <r>   -22.7222     7.0899     0.7049 </r>
       <r>   -22.6193    13.1932     2.0622 </r>
       <r>   -22.5164    12.8991     3.3893 </r>
       <r>   -22.4136    16.4554     5.0823 </r>
       <r>   -22.3107    32.1774     8.3927 </r>
       <r>   -22.2078    45.2205    13.0451 </r>
       <r>   -22.1049    42.3916    17.4064 </r>
       <r>   -22.0020    32.3302    20.7326 </r>
       <r>   -21.8992    29.4755    23.7651 </r>
       <r>   -21.7963    26.8121    26.5236 </r>
       <r>   -21.6934    14.2353    27.9881 </r>
       <r>   -21.5905     2.2099    28.2155 </r>
       <r>   -21.4876    -1.2565    28.0862 </r>
       <r>   -21.3847    -0.6834    28.0159 </r>
       <r>   -21.2819    -0.1393    28.0016 </r>
       <r>   -21.1790    -0.0146    28.0001 </r>
       <r>   -21.0761    -0.0008    28.0000 </r>
       <r>   -20.9732    -0.0000    28.0000 </r>
       <r>   -20.8703    -0.0000    28.0000 </r>
       <r>   -20.7675    -0.0000    28.0000 </r>
       <r>   -20.6646    -0.0000    28.0000 </r>
       <r>   -20.5617    -0.0000    28.0000 </r>
       <r>   -20.4588     0.0000    28.0000 </r>
       <r>   -20.3559     0.0000    28.0000 </r>
       <r>   -20.2530     0.0000    28.0000 </r>
       <r>   -20.1502     0.0000    28.0000 </r>
       <r>   -20.0473     0.0000    28.0000 </r>
       <r>   -19.9444     0.0000    28.0000 </r>
       <r>   -19.8415     0.0000    28.0000 </r>
       <r>   -19.7386     0.0000    28.0000 </r>
       <r>   -19.6358     0.0000    28.0000 </r>
       <r>   -19.5329     0.0000    28.0000 </r>
       <r>   -19.4300     0.0000    28.0000 </r>
       <r>   -19.3271     0.0000    28.0000 </r>
       <r>   -19.2242     0.0000    28.0000 </r>
       <r>   -19.1213     0.0000    28.0000 </r>
       <r>   -19.0185     0.0000    28.0000 </r>
       <r>   -18.9156     0.0000    28.0000 </r>
       <r>   -18.8127     0.0000    28.0000 </r>
       <r>   -18.7098     0.0000    28.0000 </r>
       <r>   -18.6069     0.0000    28.0000 </r>
       <r>   -18.5041     0.0000    28.0000 </r>
       <r>   -18.4012    -0.0000    28.0000 </r>
       <r>   -18.2983    -0.0000    28.0000 </r>
       <r>   -18.1954    -0.0000    28.0000 </r>
       <r>   -18.0925    -0.0000    28.0000 </r>
       <r>   -17.9896    -0.0000    28.0000 </r>
       <r>   -17.8868    -0.0000    28.0000 </r>
       <r>   -17.7839    -0.0000    28.0000 </r>
       <r>   -17.6810    -0.0000    28.0000 </r>
       <r>   -17.5781    -0.0000    28.0000 </r>
       <r>   -17.4752    -0.0000    28.0000 </r>
       <r>   -17.3724    -0.0011    27.9999 </r>
       <r>   -17.2695    -0.0174    27.9981 </r>
       <r>   -17.1666    -0.1474    27.9829 </r>
       <r>   -17.0637    -0.5938    27.9218 </r>
       <r>   -16.9608    -0.5230    27.8680 </r>
       <r>   -16.8579     3.7208    28.2508 </r>
       <r>   -16.7551    12.5757    29.5446 </r>
       <r>   -16.6522    15.7205    31.1620 </r>
       <r>   -16.5493     8.3747    32.0236 </r>
       <r>   -16.4464     0.9759    32.1240 </r>
       <r>   -16.3435    -0.7933    32.0424 </r>
       <r>   -16.2407    -0.3469    32.0067 </r>
       <r>   -16.1378    -0.0596    32.0006 </r>
       <r>   -16.0349    -0.0052    32.0000 </r>
       <r>   -15.9320    -0.0003    32.0000 </r>
       <r>   -15.8291    -0.0000    32.0000 </r>
       <r>   -15.7262    -0.0000    32.0000 </r>
       <r>   -15.6234    -0.0000    32.0000 </r>
       <r>   -15.5205    -0.0000    32.0000 </r>
       <r>   -15.4176    -0.0000    32.0000 </r>
       <r>   -15.3147     0.0000    32.0000 </r>
       <r>   -15.2118     0.0000    32.0000 </r>
       <r>   -15.1090     0.0000    32.0000 </r>
       <r>   -15.0061     0.0000    32.0000 </r>
       <r>   -14.9032     0.0000    32.0000 </r>
       <r>   -14.8003     0.0000    32.0000 </r>
       <r>   -14.6974     0.0000    32.0000 </r>
       <r>   -14.5945     0.0000    32.0000 </r>
       <r>   -14.4917     0.0000    32.0000 </r>
       <r>   -14.3888     0.0000    32.0000 </r>
       <r>   -14.2859     0.0000    32.0000 </r>
       <r>   -14.1830     0.0000    32.0000 </r>
       <r>   -14.0801     0.0000    32.0000 </r>
       <r>   -13.9773     0.0000    32.0000 </r>
       <r>   -13.8744     0.0000    32.0000 </r>
       <r>   -13.7715     0.0000    32.0000 </r>
       <r>   -13.6686     0.0000    32.0000 </r>
       <r>   -13.5657     0.0000    32.0000 </r>
       <r>   -13.4628     0.0000    32.0000 </r>
       <r>   -13.3600     0.0000    32.0000 </r>
       <r>   -13.2571     0.0000    32.0000 </r>
       <r>   -13.1542     0.0000    32.0000 </r>
       <r>   -13.0513     0.0000    32.0000 </r>
       <r>   -12.9484     0.0000    32.0000 </r>
       <r>   -12.8456     0.0000    32.0000 </r>
       <r>   -12.7427     0.0000    32.0000 </r>
       <r>   -12.6398     0.0000    32.0000 </r>
       <r>   -12.5369     0.0000    32.0000 </r>
       <r>   -12.4340     0.0000    32.0000 </r>
       <r>   -12.3311     0.0000    32.0000 </r>
       <r>   -12.2283     0.0000    32.0000 </r>
       <r>   -12.1254     0.0000    32.0000 </r>
       <r>   -12.0225     0.0000    32.0000 </r>
       <r>   -11.9196     0.0000    32.0000 </r>
       <r>   -11.8167     0.0000    32.0000 </r>
       <r>   -11.7139     0.0000    32.0000 </r>
       <r>   -11.6110     0.0000    32.0000 </r>
       <r>   -11.5081     0.0000    32.0000 </r>
       <r>   -11.4052     0.0000    32.0000 </r>
       <r>   -11.3023     0.0000    32.0000 </r>
       <r>   -11.1994     0.0000    32.0000 </r>
       <r>   -11.0966     0.0000    32.0000 </r>
       <r>   -10.9937     0.0000    32.0000 </r>
       <r>   -10.8908     0.0000    32.0000 </r>
       <r>   -10.7879     0.0000    32.0000 </r>
       <r>   -10.6850     0.0000    32.0000 </r>
       <r>   -10.5822     0.0000    32.0000 </r>
       <r>   -10.4793     0.0000    32.0000 </r>
       <r>   -10.3764     0.0000    32.0000 </r>
       <r>   -10.2735     0.0000    32.0000 </r>
       <r>   -10.1706     0.0000    32.0000 </r>
       <r>   -10.0677     0.0000    32.0000 </r>
       <r>    -9.9649     0.0000    32.0000 </r>
       <r>    -9.8620     0.0000    32.0000 </r>
       <r>    -9.7591     0.0000    32.0000 </r>
       <r>    -9.6562     0.0000    32.0000 </r>
       <r>    -9.5533     0.0000    32.0000 </r>
       <r>    -9.4505     0.0000    32.0000 </r>
       <r>    -9.3476     0.0000    32.0000 </r>
       <r>    -9.2447     0.0000    32.0000 </r>
       <r>    -9.1418     0.0000    32.0000 </r>
       <r>    -9.0389     0.0000    32.0000 </r>
       <r>    -8.9360     0.0000    32.0000 </r>
       <r>    -8.8332     0.0000    32.0000 </r>
       <r>    -8.7303     0.0000    32.0000 </r>
       <r>    -8.6274     0.0000    32.0000 </r>
       <r>    -8.5245     0.0000    32.0000 </r>
       <r>    -8.4216     0.0000    32.0000 </r>
       <r>    -8.3188     0.0000    32.0000 </r>
       <r>    -8.2159     0.0000    32.0000 </r>
       <r>    -8.1130     0.0000    32.0000 </r>
       <r>    -8.0101     0.0000    32.0000 </r>
       <r>    -7.9072     0.0000    32.0000 </r>
       <r>    -7.8043    -0.0000    32.0000 </r>
       <r>    -7.7015    -0.0000    32.0000 </r>
       <r>    -7.5986    -0.0000    32.0000 </r>
       <r>    -7.4957    -0.0000    32.0000 </r>
       <r>    -7.3928    -0.0000    32.0000 </r>
       <r>    -7.2899    -0.0000    32.0000 </r>
       <r>    -7.1871    -0.0000    32.0000 </r>
       <r>    -7.0842    -0.0000    32.0000 </r>
       <r>    -6.9813    -0.0000    32.0000 </r>
       <r>    -6.8784    -0.0000    32.0000 </r>
       <r>    -6.7755    -0.0002    32.0000 </r>
       <r>    -6.6726    -0.0046    31.9995 </r>
       <r>    -6.5698    -0.0468    31.9947 </r>
       <r>    -6.4669    -0.2367    31.9703 </r>
       <r>    -6.3640    -0.3952    31.9297 </r>
       <r>    -6.2611     1.0655    32.0393 </r>
       <r>    -6.1582     5.2710    32.5816 </r>
       <r>    -6.0553     7.7725    33.3812 </r>
       <r>    -5.9525     5.2535    33.9217 </r>
       <r>    -5.8496     4.1637    34.3501 </r>
       <r>    -5.7467     6.9705    35.0672 </r>
       <r>    -5.6438     6.3447    35.7200 </r>
       <r>    -5.5409     2.3160    35.9583 </r>
       <r>    -5.4381     3.0986    36.2770 </r>
       <r>    -5.3352    10.1786    37.3242 </r>
       <r>    -5.2323    17.4866    39.1233 </r>
       <r>    -5.1294    20.9421    41.2779 </r>
       <r>    -5.0265    24.5528    43.8039 </r>
       <r>    -4.9236    30.9527    46.9884 </r>
       <r>    -4.8208    31.6985    50.2496 </r>
       <r>    -4.7179    24.9546    52.8169 </r>
       <r>    -4.6150    22.8123    55.1639 </r>
       <r>    -4.5121    29.4513    58.1939 </r>
       <r>    -4.4092    38.3457    62.1390 </r>
       <r>    -4.3064    45.8719    66.8584 </r>
       <r>    -4.2035    46.8770    71.6812 </r>
       <r>    -4.1006    41.8720    75.9890 </r>
       <r>    -3.9977    41.2798    80.2360 </r>
       <r>    -3.8948    41.3096    84.4860 </r>
       <r>    -3.7919    31.7814    87.7557 </r>
       <r>    -3.6891    20.2189    89.8359 </r>
       <r>    -3.5862    14.6947    91.3477 </r>
       <r>    -3.4833    15.6054    92.9532 </r>
       <r>    -3.3804    21.5565    95.1710 </r>
       <r>    -3.2775    23.7092    97.6102 </r>
       <r>    -3.1747    21.0844    99.7794 </r>
       <r>    -3.0718    23.7699   102.2249 </r>
       <r>    -2.9689    28.8780   105.1959 </r>
       <r>    -2.8660    27.7498   108.0509 </r>
       <r>    -2.7631    27.1156   110.8406 </r>
       <r>    -2.6602    27.9872   113.7200 </r>
       <r>    -2.5574    24.3450   116.2246 </r>
       <r>    -2.4545    23.7693   118.6701 </r>
       <r>    -2.3516    25.6824   121.3123 </r>
       <r>    -2.2487    19.2511   123.2929 </r>
       <r>    -2.1458     7.6602   124.0810 </r>
       <r>    -2.0430     0.4716   124.1295 </r>
       <r>    -1.9401    -1.2138   124.0046 </r>
       <r>    -1.8372    -1.1319   123.8882 </r>
       <r>    -1.7343     0.9918   123.9902 </r>
       <r>    -1.6314     8.2477   124.8387 </r>
       <r>    -1.5285    15.3815   126.4212 </r>
       <r>    -1.4257    12.5476   127.7121 </r>
       <r>    -1.3228     3.9763   128.1212 </r>
       <r>    -1.2199    -0.3982   128.0803 </r>
       <r>    -1.1170    -0.5980   128.0187 </r>
       <r>    -1.0141    -0.1603   128.0022 </r>
       <r>    -0.9113    -0.0203   128.0001 </r>
       <r>    -0.8084    -0.0014   128.0000 </r>
       <r>    -0.7055    -0.0001   128.0000 </r>
       <r>    -0.6026    -0.0000   128.0000 </r>
       <r>    -0.4997    -0.0000   128.0000 </r>
       <r>    -0.3968    -0.0000   128.0000 </r>
       <r>    -0.2940    -0.0000   128.0000 </r>
       <r>    -0.1911    -0.0000   128.0000 </r>
       <r>    -0.0882    -0.0000   128.0000 </r>
       <r>     0.0147    -0.0000   128.0000 </r>
       <r>     0.1176    -0.0000   128.0000 </r>
       <r>     0.2204    -0.0001   128.0000 </r>
       <r>     0.3233    -0.0036   127.9996 </r>
       <r>     0.4262    -0.0507   127.9944 </r>
       <r>     0.5291    -0.3916   127.9541 </r>
       <r>     0.6320    -1.5404   127.7956 </r>
       <r>     0.7349    -1.9320   127.5969 </r>
       <r>     0.8377     6.6895   128.2851 </r>
       <r>     0.9406    31.3130   131.5066 </r>
       <r>     1.0435    57.7707   137.4502 </r>
       <r>     1.1464    65.7181   144.2114 </r>
       <r>     1.2493    62.1543   150.6059 </r>
       <r>     1.3521    62.5896   157.0453 </r>
       <r>     1.4550    66.0898   163.8447 </r>
       <r>     1.5579    63.3775   170.3651 </r>
       <r>     1.6608    48.4852   175.3533 </r>
       <r>     1.7637    31.2161   178.5649 </r>
       <r>     1.8666    27.4369   181.3877 </r>
       <r>     1.9694    33.9616   184.8817 </r>
       <r>     2.0723    35.2478   188.5081 </r>
       <r>     2.1752    26.2943   191.2133 </r>
       <r>     2.2781    16.2266   192.8827 </r>
       <r>     2.3810    12.9130   194.2112 </r>
       <r>     2.4838    10.7531   195.3175 </r>
       <r>     2.5867     4.8318   195.8146 </r>
       <r>     2.6896     2.8210   196.1048 </r>
       <r>     2.7925    12.3409   197.3745 </r>
       <r>     2.8954    25.0496   199.9516 </r>
       <r>     2.9983    25.7015   202.5959 </r>
       <r>     3.1011    16.3264   204.2755 </r>
       <r>     3.2040     9.6242   205.2657 </r>
       <r>     3.3069     5.9752   205.8804 </r>
       <r>     3.4098     1.9112   206.0771 </r>
       <r>     3.5127    -0.2787   206.0484 </r>
       <r>     3.6155    -0.3646   206.0109 </r>
       <r>     3.7184    -0.1364   205.9968 </r>
       <r>     3.8213    -0.2262   205.9736 </r>
       <r>     3.9242    -0.4100   205.9314 </r>
       <r>     4.0271     0.8475   206.0186 </r>
       <r>     4.1300     5.0095   206.5340 </r>
       <r>     4.2328     8.1480   207.3722 </r>
       <r>     4.3357     5.5820   207.9465 </r>
       <r>     4.4386     1.2064   208.0706 </r>
       <r>     4.5415    -0.3828   208.0313 </r>
       <r>     4.6444    -0.2479   208.0058 </r>
       <r>     4.7472    -0.0506   208.0006 </r>
       <r>     4.8501    -0.0051   208.0000 </r>
       <r>     4.9530    -0.0003   208.0000 </r>
       <r>     5.0559    -0.0000   208.0000 </r>
       <r>     5.1588    -0.0000   208.0000 </r>
       <r>     5.2617    -0.0000   208.0000 </r>
       <r>     5.3645    -0.0000   208.0000 </r>
       <r>     5.4674    -0.0000   208.0000 </r>
       <r>     5.5703     0.0000   208.0000 </r>
       <r>     5.6732     0.0000   208.0000 </r>
       <r>     5.7761     0.0000   208.0000 </r>
       <r>     5.8789     0.0000   208.0000 </r>
       <r>     5.9818     0.0000   208.0000 </r>
       <r>     6.0847     0.0000   208.0000 </r>
       <r>     6.1876     0.0000   208.0000 </r>
      </set>
     </set>
    </array>
   </total>
  </dos>
 </calculation>
 <structure name="finalpos" >
  <crystal>
   <varray name="basis" >
    <v>       5.73591900       0.00000000      -0.79026700 </v>
    <v>       0.00000000       4.78544200       0.00000000 </v>
    <v>       0.00000000       0.00000000      10.88396600 </v>
   </varray>
   <i name="volume">    298.75297805 </i>
   <varray name="rec_basis" >
    <v>       0.17433998       0.00000000       0.00000000 </v>
    <v>       0.00000000       0.20896711       0.00000000 </v>
    <v>       0.01265854       0.00000000       0.09187827 </v>
   </varray>
  </crystal>
  <varray name="positions" >
   <v>       0.24699400       0.24850600       0.74623300 </v>
   <v>       0.25396300       0.75149400       0.24623300 </v>
   <v>       0.51485700       0.24497600       0.49879200 </v>
   <v>       0.51485700       0.75502400       0.99879200 </v>
   <v>       0.75373900       0.23127500       0.26486200 </v>
   <v>       0.75373900       0.77278800       0.76486200 </v>
   <v>       0.99045900       0.24174000       0.99652900 </v>
   <v>       0.99045900       0.75862800       0.49652900 </v>
   <v>       0.77312100       0.05847800       0.41725200 </v>
   <v>       0.77857200       0.94152200       0.91725200 </v>
   <v>       0.01370000       0.05755600       0.18278600 </v>
   <v>       0.01370000       0.93686400       0.68278600 </v>
   <v>       0.22224900       0.44944100       0.56360300 </v>
   <v>       0.21839800       0.55055900       0.07080400 </v>
   <v>       0.27923300       0.05174700       0.92611600 </v>
   <v>       0.27923300       0.94825300       0.42203700 </v>
   <v>       0.48187500       0.45353000       0.31584000 </v>
   <v>       0.48172500       0.54647000       0.81584000 </v>
   <v>       0.52253600       0.03560000       0.67416600 </v>
   <v>       0.52253600       0.96440000       0.17416600 </v>
   <v>       0.72670400       0.44302000       0.09109400 </v>
   <v>       0.72235300       0.55698000       0.59109400 </v>
   <v>       0.97343300       0.45650500       0.81960400 </v>
   <v>       0.96859400       0.54349500       0.32535500 </v>
  </varray>
 </structure>
</modeling>
