 vasp.5.3.5 31Mar14 (build Aug 29 2014 19:41:47) complex                        
  
 executed on             LinuxIFC date 2019.01.22  16:52:54
 running on    1 total cores
 distrk:  each k-point on    1 cores,    1 groups
 distr:  one band on NCORES_PER_BAND=   1 cores,    1 groups


--------------------------------------------------------------------------------------------------------


 INCAR:
 POTCAR:    PAW_PBE Fe 06Sep2000                  
 POTCAR:    PAW_PBE O 08Apr2002                   
 POTCAR:    PAW_PBE F 08Apr2002                   
 POTCAR:    PAW_PBE Fe 06Sep2000                  
   VRHFIN =Fe:  d7 s1                                                           
   LEXCH  = PE                                                                  
   EATOM  =   594.3153 eV,   43.6809 Ry                                         
                                                                                
   TITEL  = PAW_PBE Fe 06Sep2000                                                
   LULTRA =        F    use ultrasoft PP ?                                      
   IUNSCR =        1    unscreen: 0-lin 1-nonlin 2-no                           
   RPACOR =    2.000    partial core radius                                     
   POMASS =   55.847; ZVAL   =    8.000    mass and valenz                      
   RCORE  =    2.300    outmost cutoff radius                                   
   RWIGS  =    2.460; RWIGS  =    1.302    wigner-seitz radius (au A)           
   ENMAX  =  267.882; ENMIN  =  200.911 eV                                      
   RCLOC  =    1.701    cutoff for local pot                                    
   LCOR   =        T    correct aug charges                                     
   LPAW   =        T    paw PP                                                  
   EAUG   =  511.368                                                            
   DEXC   =    0.000                                                            
   RMAX   =    2.356    core radius for proj-oper                               
   RAUG   =    1.300    factor for augmentation sphere                          
   RDEP   =    2.442    radius for radial grids                                 
   RDEPT  =    1.890    core radius for aug-charge                              
                                                                                
   Atomic configuration                                                         
    9 entries                                                                   
     n  l   j            E        occ.                                          
     1  0  0.50     -6993.8440   2.0000                                         
     2  0  0.50      -814.6047   2.0000                                         
     2  1  1.50      -693.3689   6.0000                                         
     3  0  0.50       -89.4732   2.0000                                         
     3  1  1.50       -55.6373   6.0000                                         
     3  2  2.50        -3.8151   7.0000                                         
     4  0  0.50        -4.2551   1.0000                                         
     4  1  1.50        -3.4015   0.0000                                         
     4  3  2.50        -1.3606   0.0000                                         
   Description                                                                  
     l       E           TYP  RCUT    TYP  RCUT                                 
     2     -3.8151135     23  2.300                                             
     2     -5.1756961     23  2.300                                             
     0     -4.2550963     23  2.300                                             
     0      7.2035603     23  2.300                                             
     1     -2.7211652     23  2.300                                             
     1     18.4316424     23  2.300                                             
  local pseudopotential read in
  partial core-charges read in
  partial kinetic energy density read in
  atomic valenz-charges read in
  non local Contribution for L=           2  read in
    real space projection operators read in
  non local Contribution for L=           2  read in
    real space projection operators read in
  non local Contribution for L=           0  read in
    real space projection operators read in
  non local Contribution for L=           0  read in
    real space projection operators read in
  non local Contribution for L=           1  read in
    real space projection operators read in
  non local Contribution for L=           1  read in
    real space projection operators read in
    PAW grid and wavefunctions read in
 
   number of l-projection  operators is LMAX  =           6
   number of lm-projection operators is LMMAX =          18
 
 POTCAR:    PAW_PBE O 08Apr2002                   
   VRHFIN =O: s2p4                                                              
   LEXCH  = PE                                                                  
   EATOM  =   432.3788 eV,   31.7789 Ry                                         
                                                                                
   TITEL  = PAW_PBE O 08Apr2002                                                 
   LULTRA =        F    use ultrasoft PP ?                                      
   IUNSCR =        1    unscreen: 0-lin 1-nonlin 2-no                           
   RPACOR =    1.200    partial core radius                                     
   POMASS =   16.000; ZVAL   =    6.000    mass and valenz                      
   RCORE  =    1.520    outmost cutoff radius                                   
   RWIGS  =    1.550; RWIGS  =    0.820    wigner-seitz radius (au A)           
   ENMAX  =  400.000; ENMIN  =  300.000 eV                                      
   ICORE  =        2    local potential                                         
   LCOR   =        T    correct aug charges                                     
   LPAW   =        T    paw PP                                                  
   EAUG   =  605.392                                                            
   DEXC   =    0.000                                                            
   RMAX   =    1.553    core radius for proj-oper                               
   RAUG   =    1.300    factor for augmentation sphere                          
   RDEP   =    1.550    radius for radial grids                                 
   RDEPT  =    1.329    core radius for aug-charge                              
                                                                                
   Atomic configuration                                                         
    4 entries                                                                   
     n  l   j            E        occ.                                          
     1  0  0.50      -514.6923   2.0000                                         
     2  0  0.50       -23.9615   2.0000                                         
     2  1  0.50        -9.0305   4.0000                                         
     3  2  1.50        -9.5241   0.0000                                         
   Description                                                                  
     l       E           TYP  RCUT    TYP  RCUT                                 
     0    -23.9615318     23  1.200                                             
     0     -9.5240782     23  1.200                                             
     1     -9.0304911     23  1.520                                             
     1      8.1634956     23  1.520                                             
     2     -9.5240782      7  1.500                                             
  local pseudopotential read in
  partial core-charges read in
  partial kinetic energy density read in
  kinetic energy density of atom read in
  atomic valenz-charges read in
  non local Contribution for L=           0  read in
    real space projection operators read in
  non local Contribution for L=           0  read in
    real space projection operators read in
  non local Contribution for L=           1  read in
    real space projection operators read in
  non local Contribution for L=           1  read in
    real space projection operators read in
    PAW grid and wavefunctions read in
 
   number of l-projection  operators is LMAX  =           4
   number of lm-projection operators is LMMAX =           8
 
 POTCAR:    PAW_PBE F 08Apr2002                   
   VRHFIN =F: s2p5                                                              
   LEXCH  = PE                                                                  
   EATOM  =   659.6475 eV,   48.4827 Ry                                         
                                                                                
   TITEL  = PAW_PBE F 08Apr2002                                                 
   LULTRA =        F    use ultrasoft PP ?                                      
   IUNSCR =        1    unscreen: 0-lin 1-nonlin 2-no                           
   RPACOR =    1.200    partial core radius                                     
   POMASS =   18.998; ZVAL   =    7.000    mass and valenz                      
   RCORE  =    1.520    outmost cutoff radius                                   
   RWIGS  =    1.500; RWIGS  =    0.794    wigner-seitz radius (au A)           
   ENMAX  =  400.000; ENMIN  =  300.000 eV                                      
   ICORE  =        2    local potential                                         
   LCOR   =        T    correct aug charges                                     
   LPAW   =        T    paw PP                                                  
   EAUG   =  613.614                                                            
   RMAX   =    1.555    core radius for proj-oper                               
   RAUG   =    1.300    factor for augmentation sphere                          
   RDEP   =    1.539    radius for radial grids                                 
   RDEPT  =    1.299    core radius for aug-charge                              
                                                                                
   Atomic configuration                                                         
    4 entries                                                                   
     n  l   j            E        occ.                                          
     1  0  0.50      -663.3661   2.0000                                         
     2  0  0.50       -29.8995   2.0000                                         
     2  1  0.50       -11.1114   5.0000                                         
     3  2  1.50       -10.8847   0.0000                                         
   Description                                                                  
     l       E           TYP  RCUT    TYP  RCUT                                 
     0    -29.8995018     23  1.200                                             
     0     -9.5240782     23  1.200                                             
     1    -11.1113914     23  1.520                                             
     1      1.3605826     23  1.520                                             
     2    -10.8846608      7  1.500                                             
  local pseudopotential read in
  partial core-charges read in
  partial kinetic energy density read in
  atomic valenz-charges read in
  non local Contribution for L=           0  read in
    real space projection operators read in
  non local Contribution for L=           0  read in
    real space projection operators read in
  non local Contribution for L=           1  read in
    real space projection operators read in
  non local Contribution for L=           1  read in
    real space projection operators read in
    PAW grid and wavefunctions read in
 
   number of l-projection  operators is LMAX  =           4
   number of lm-projection operators is LMMAX =           8
 
 Optimization of the real space projectors (new method)

 maximal supplied QI-value         = 16.25
 optimisation between [QCUT,QGAM] = [ 10.24, 20.48] = [ 29.35,117.42] Ry 
 Optimized for a Real-space Cutoff    1.51 Angstroem

   l    n(q)    QCUT    max X(q) W(low)/X(q) W(high)/X(q)  e(spline) 
   2      8    10.239    80.901    0.43E-03    0.67E-03    0.20E-06
   2      8    10.239    75.754    0.44E-03    0.68E-03    0.20E-06
   0      9    10.239    58.752    0.81E-04    0.41E-04    0.71E-07
   0      9    10.239    30.679    0.75E-04    0.39E-04    0.65E-07
   1      9    10.239    17.977    0.50E-04    0.16E-03    0.11E-06
   1      9    10.239    13.559    0.39E-04    0.13E-03    0.98E-07
 Optimization of the real space projectors (new method)

 maximal supplied QI-value         = 24.76
 optimisation between [QCUT,QGAM] = [ 10.15, 20.30] = [ 28.85,115.39] Ry 
 Optimized for a Real-space Cutoff    1.38 Angstroem

   l    n(q)    QCUT    max X(q) W(low)/X(q) W(high)/X(q)  e(spline) 
   0      8    10.150    20.381    0.22E-03    0.32E-03    0.29E-06
   0      8    10.150    15.268    0.23E-03    0.35E-03    0.30E-06
   1      8    10.150     5.964    0.46E-03    0.53E-03    0.21E-06
   1      8    10.150     5.382    0.38E-03    0.45E-03    0.19E-06
 Optimization of the real space projectors (new method)

 maximal supplied QI-value         = 24.76
 optimisation between [QCUT,QGAM] = [ 10.15, 20.30] = [ 28.85,115.39] Ry 
 Optimized for a Real-space Cutoff    1.38 Angstroem

   l    n(q)    QCUT    max X(q) W(low)/X(q) W(high)/X(q)  e(spline) 
   0      8    10.150    14.049    0.15E-03    0.22E-03    0.24E-06
   0      8    10.150     8.945    0.21E-03    0.31E-03    0.30E-06
   1      8    10.150     7.086    0.42E-03    0.48E-03    0.23E-06
   1      8    10.150     6.747    0.37E-03    0.43E-03    0.21E-06
  PAW_PBE Fe 06Sep2000                  :
 energy of atom  1       EATOM= -594.3153
 kinetic energy error for atom=    0.0088 (will be added to EATOM!!)
  PAW_PBE O 08Apr2002                   :
 energy of atom  2       EATOM= -432.3788
 kinetic energy error for atom=    0.1156 (will be added to EATOM!!)
  PAW_PBE F 08Apr2002                   :
 energy of atom  3       EATOM= -659.6475
 kinetic energy error for atom=    0.1978 (will be added to EATOM!!)
 
 
 POSCAR: Fe12 O2 F22                             
  positions in direct lattice
  No initial velocities read in
 exchange correlation table for  LEXCH =        8
   RHO(1)=    0.500       N(1)  =     2000
   RHO(2)=  100.500       N(2)  =     4000
 


--------------------------------------------------------------------------------------------------------


 ion  position               nearest neighbor table
   1  0.000  0.167  0.501-  19 2.02  15 2.02  31 2.14  31 2.14  27 2.15  27 2.15
   2  0.000  0.833  0.501-  20 2.02  16 2.02  32 2.14  32 2.14  28 2.15  28 2.15
   3  0.000  0.667  0.001-  21 2.02  17 2.02  33 2.14  33 2.14  29 2.15  29 2.15
   4  0.000  0.333  0.001-  22 2.02  18 2.02  34 2.14  34 2.14  30 2.15  30 2.15
   5  0.500  0.166  0.000-  23 2.01  34 2.05  19 2.12  19 2.12  15 2.13  15 2.13
   6  0.500  0.834  0.000-  24 2.01  33 2.05  20 2.12  20 2.12  16 2.13  16 2.13
   7  0.500  0.666  0.500-  25 2.01  32 2.05  21 2.12  21 2.12  17 2.13  17 2.13
   8  0.500  0.334  0.500-  26 2.01  31 2.05  22 2.12  22 2.12  18 2.13  18 2.13
   9  0.000  0.000  0.012-  13 2.05  23 2.15  24 2.15  23 2.15  24 2.15  35 2.16
  10  0.000  0.500  0.512-  14 2.05  25 2.15  26 2.15  25 2.15  26 2.15  36 2.16
  11  0.500  0.000  0.472-  13 1.95  13 1.95  28 2.03  27 2.03  35 2.22  35 2.22
  12  0.500  0.500  0.972-  14 1.95  14 1.95  30 2.03  29 2.03  36 2.22  36 2.22
  13  0.000  0.000  0.314-  11 1.95  11 1.95   9 2.05
  14  0.000  0.500  0.814-  12 1.95  12 1.95  10 2.05
  15  0.000  0.168  0.203-   1 2.02   5 2.13   5 2.13
  16  0.000  0.832  0.203-   2 2.02   6 2.13   6 2.13
  17  0.000  0.668  0.703-   3 2.02   7 2.13   7 2.13
  18  0.000  0.332  0.703-   4 2.02   8 2.13   8 2.13
  19  0.000  0.168  0.799-   1 2.02   5 2.12   5 2.12
  20  0.000  0.832  0.799-   2 2.02   6 2.12   6 2.12
  21  0.000  0.668  0.299-   3 2.02   7 2.12   7 2.12
  22  0.000  0.332  0.299-   4 2.02   8 2.12   8 2.12
  23  0.500  0.068  0.996-   5 2.01   9 2.15   9 2.15
  24  0.500  0.932  0.996-   6 2.01   9 2.15   9 2.15
  25  0.500  0.568  0.496-   7 2.01  10 2.15  10 2.15
  26  0.500  0.432  0.496-   8 2.01  10 2.15  10 2.15
  27  0.500  0.098  0.506-  11 2.03   1 2.15   1 2.15
  28  0.500  0.902  0.506-  11 2.03   2 2.15   2 2.15
  29  0.500  0.598  0.006-  12 2.03   3 2.15   3 2.15
  30  0.500  0.402  0.006-  12 2.03   4 2.15   4 2.15
  31  0.500  0.234  0.502-   8 2.05   1 2.14   1 2.14
  32  0.500  0.766  0.502-   7 2.05   2 2.14   2 2.14
  33  0.500  0.734  0.002-   6 2.05   3 2.14   3 2.14
  34  0.500  0.266  0.002-   5 2.05   4 2.14   4 2.14
  35  0.000  0.000  0.695-   9 2.16  11 2.22  11 2.22
  36  0.000  0.500  0.195-  10 2.16  12 2.22  12 2.22
 

IMPORTANT INFORMATION: All symmetrisations will be switched off!
NOSYMM: (Re-)initialisation of all symmetry stuff for point group C_1.

 
 
 KPOINTS: Automatic mesh                          

Automatic generation of k-mesh.
Space group operators:
 irot       det(A)        alpha          n_x          n_y          n_z        tau_x        tau_y        tau_z
    1     1.000000     0.000001     1.000000     0.000000     0.000000     0.000000     0.000000     0.000000
 
 Subroutine IBZKPT returns following result:
 ===========================================
 
 Found      8 irreducible k-points:
 
 Following reciprocal coordinates:
            Coordinates               Weight
  0.000000  0.000000  0.000000      1.000000
  0.500000  0.000000  0.000000      1.000000
  0.000000  0.500000  0.000000      1.000000
  0.500000  0.500000  0.000000      1.000000
  0.000000  0.000000  0.500000      1.000000
  0.500000  0.000000  0.500000      1.000000
  0.000000  0.500000  0.500000      1.000000
  0.500000  0.500000  0.500000      1.000000
 
 Following cartesian coordinates:
            Coordinates               Weight
  0.000000  0.000000  0.000000      1.000000
  0.153722  0.000000  0.000000      1.000000
  0.000000  0.024332  0.000000      1.000000
  0.153722  0.024332  0.000000      1.000000
  0.000000  0.000000  0.073614      1.000000
  0.153722  0.000000  0.073614      1.000000
  0.000000  0.024332  0.073614      1.000000
  0.153722  0.024332  0.073614      1.000000
 


--------------------------------------------------------------------------------------------------------




 Dimension of arrays:
   k-points           NKPTS =      8   k-points in BZ     NKDIM =      8   number of bands    NBANDS=    157
   number of dos      NEDOS =    301   number of ions     NIONS =     36
   non local maximal  LDIM  =      6   non local SUM 2l+1 LMDIM =     18
   total plane-waves  NPLWV =  62208
   max r-space proj   IRMAX =   2020   max aug-charges    IRDMAX=   5080
   dimension x,y,z NGX =    16 NGY =  108 NGZ =   36
   dimension x,y,z NGXF=    32 NGYF=  216 NGZF=   72
   support grid    NGXF=    32 NGYF=  216 NGZF=   72
   ions per type =              12   2  22
 NGX,Y,Z   is equivalent  to a cutoff of   8.18,  8.74,  8.81 a.u.
 NGXF,Y,Z  is equivalent  to a cutoff of  16.36, 17.47, 17.62 a.u.


 I would recommend the setting:
   dimension x,y,z NGX =    16 NGY =  101 NGZ =   33
 SYSTEM =  tssm                                    
 POSCAR =  Fe12 O2 F22                             

 Startparameter for this run:
   NWRITE =      2    write-flag & timer
   PREC   = normal    normal or accurate (medium, high low for compatibility)
   ISTART =      0    job   : 0-new  1-cont  2-samecut
   ICHARG =      2    charge: 1-file 2-atom 10-const
   ISPIN  =      1    spin polarized calculation?
   LNONCOLLINEAR =      F non collinear calculations
   LSORBIT =      F    spin-orbit coupling
   INIWAV =      1    electr: 0-lowe 1-rand  2-diag
   LASPH  =      F    aspherical Exc in radial PAW
   METAGGA=      F    non-selfconsistent MetaGGA calc.

 Electronic Relaxation 1
   ENCUT  =  400.0 eV  29.40 Ry    5.42 a.u.   5.30 33.51 11.08*2*pi/ulx,y,z
   ENINI  =  400.0     initial cutoff
   ENAUG  =  613.6 eV  augmentation charge cutoff
   NELM   =    300;   NELMIN=  2; NELMDL=-12     # of ELM steps 
   EDIFF  = 0.1E-03   stopping-criterion for ELM
   LREAL  =      T    real-space projection
   NLSPLINE    = F    spline interpolate recip. space projectors
   LCOMPAT=      F    compatible to vasp.4.4
   GGA_COMPAT  = T    GGA compatible to vasp.4.4-vasp.4.6
   LMAXPAW     = -100 max onsite density
   LMAXMIX     =    2 max onsite mixed and CHGCAR
   VOSKOWN=      0    Vosko Wilk Nusair interpolation
   ROPT   =   -0.00050  -0.00050  -0.00050
 Ionic relaxation
   EDIFFG = 0.1E-02   stopping-criterion for IOM
   NSW    =      1    number of steps for IOM
   NBLOCK =      1;   KBLOCK =      1    inner block; outer block 
   IBRION =      1    ionic relax: 0-MD 1-quasi-New 2-CG
   NFREE  =      0    steps in history (QN), initial steepest desc. (CG)
   ISIF   =      2    stress and relaxation
   IWAVPR =     11    prediction:  0-non 1-charg 2-wave 3-comb
   ISYM   =      0    0-nonsym 1-usesym 2-fastsym
   LCORR  =      T    Harris-Foulkes like correction to forces

   POTIM  = 0.5000    time-step for ionic-motion
   TEIN   =    0.0    initial temperature
   TEBEG  =    0.0;   TEEND  =   0.0 temperature during run
   SMASS  =  -3.00    Nose mass-parameter (am)
   estimated Nose-frequenzy (Omega)   =  0.10E-29 period in steps =****** mass=  -0.242E-27a.u.
   SCALEE = 1.0000    scale energy and forces
   NPACO  =    256;   APACO  = 16.0  distance and # of slots for P.C.
   PSTRESS=    0.0 pullay stress

  Mass of Ions in am
   POMASS =  55.85 16.00 19.00
  Ionic Valenz
   ZVAL   =   8.00  6.00  7.00
  Atomic Wigner-Seitz radii
   RWIGS  =  -1.00 -1.00 -1.00
  virtual crystal weights 
   VCA    =   1.00  1.00  1.00
   NELECT =     262.0000    total number of electrons
   NUPDOWN=      -1.0000    fix difference up-down

 DOS related values:
   EMIN   =  10.00;   EMAX   =-10.00  energy-range for DOS
   EFERMI =   0.00
   ISMEAR =     1;   SIGMA  =   0.20  broadening in eV -4-tet -1-fermi 0-gaus

 Electronic relaxation 2 (details)
   IALGO  =     48    algorithm
   LDIAG  =      T    sub-space diagonalisation (order eigenvalues)
   LSUBROT=      F    optimize rotation matrix (better conditioning)
   TURBO    =      0    0=normal 1=particle mesh
   IRESTART =      0    0=no restart 2=restart with 2 vectors
   NREBOOT  =      0    no. of reboots
   NMIN     =      0    reboot dimension
   EREF     =   0.00    reference energy to select bands
   IMIX   =      4    mixing-type and parameters
     AMIX     =   0.40;   BMIX     =  1.00
     AMIX_MAG =   1.60;   BMIX_MAG =  1.00
     AMIN     =   0.01
     WC   =   100.;   INIMIX=   1;  MIXPRE=   1;  MAXMIX= -45

 Intra band minimization:
   WEIMIN = 0.0010     energy-eigenvalue tresh-hold
   EBREAK =  0.16E-06  absolut break condition
   DEPER  =   0.30     relativ break condition  

   TIME   =   0.40     timestep for ELM

  volume/ion in A,a.u.               =      12.61        85.10
  Fermi-wavevector in a.u.,A,eV,Ry     =   1.362994  2.575684 25.276243  1.857751
  Thomas-Fermi vector in A             =   2.489435
 
 Write flags
   LWAVE  =      F    write WAVECAR
   LCHARG =      T    write CHGCAR
   LVTOT  =      F    write LOCPOT, total local potential
   LVHAR  =      F    write LOCPOT, Hartree potential only
   LELF   =      F    write electronic localiz. function (ELF)
   LORBIT =      0    0 simple, 1 ext, 2 COOP (PROOUT)


 Dipole corrections
   LMONO  =      F    monopole corrections only (constant potential shift)
   LDIPOL =      F    correct potential (dipole corrections)
   IDIPOL =      0    1-x, 2-y, 3-z, 4-all directions 
   EPSILON=  1.0000000 bulk dielectric constant

 Exchange correlation treatment:
   GGA     =    --    GGA type
   LEXCH   =     8    internal setting for exchange type
   VOSKOWN=      0    Vosko Wilk Nusair interpolation
   LHFCALC =     F    Hartree Fock is set to
   LHFONE  =     F    Hartree Fock one center treatment
   AEXX    =    0.0000 exact exchange contribution

 Linear response parameters
   LEPSILON=     F    determine dielectric tensor
   LRPA    =     F    only Hartree local field effects (RPA)
   LNABLA  =     F    use nabla operator in PAW spheres
   LVEL    =     F    velocity operator in full k-point grid
   LINTERFAST=   F  fast interpolation
   KINTER  =     0    interpolate to denser k-point grid
   CSHIFT  =0.1000    complex shift for real part using Kramers Kronig
   OMEGAMAX=  -1.0    maximum frequency
   DEG_THRESHOLD= 0.2000000E-02 threshold for treating states as degnerate
   RTIME   =    0.100 relaxation time in fs

 Orbital magnetization related:
   ORBITALMAG=     F  switch on orbital magnetization
   LCHIMAG   =     F  perturbation theory with respect to B field
   DQ        =  0.001000  dq finite difference perturbation B field



--------------------------------------------------------------------------------------------------------


 quasi-Newton-method for relaxation of ions
 charge density and potential will be updated during run
 non-spin polarized calculation
 RMM-DIIS sequential band-by-band
 perform sub-space diagonalisation
    before iterative eigenvector-optimisation
 modified Broyden-mixing scheme, WC =      100.0
 initial mixing is a Kerker type mixing with AMIX =  0.4000 and BMIX =      1.0000
 Hartree-type preconditioning will be used
 using additional bands           26
 real space projection scheme for non local part
 use partial core corrections
 calculate Harris-corrections to forces 
   (improved forces if not selfconsistent)
 use gradient corrections 
 use of overlap-Matrix (Vanderbilt PP)
 Methfessel and Paxton  Order N= 1 SIGMA  =   0.20


--------------------------------------------------------------------------------------------------------


  energy-cutoff  :      400.00
  volume of cell :      453.99
      direct lattice vectors                 reciprocal lattice vectors
     3.252628000  0.000000000  0.000000000     0.307443704  0.000000000  0.000000000
     0.000000000 20.549384000  0.000000000     0.000000000  0.048663259  0.000000000
     0.000000000  0.000000000  6.792211000     0.000000000  0.000000000  0.147227464

  length of vectors
     3.252628000 20.549384000  6.792211000     0.307443704  0.048663259  0.147227464


 
 k-points in units of 2pi/SCALE and weight: Automatic mesh                          
   0.00000000  0.00000000  0.00000000       0.125
   0.15372185  0.00000000  0.00000000       0.125
   0.00000000  0.02433163  0.00000000       0.125
   0.15372185  0.02433163  0.00000000       0.125
   0.00000000  0.00000000  0.07361373       0.125
   0.15372185  0.00000000  0.07361373       0.125
   0.00000000  0.02433163  0.07361373       0.125
   0.15372185  0.02433163  0.07361373       0.125
 
 k-points in reciprocal lattice and weights: Automatic mesh                          
   0.00000000  0.00000000  0.00000000       0.125
   0.50000000  0.00000000  0.00000000       0.125
   0.00000000  0.50000000  0.00000000       0.125
   0.50000000  0.50000000  0.00000000       0.125
   0.00000000  0.00000000  0.50000000       0.125
   0.50000000  0.00000000  0.50000000       0.125
   0.00000000  0.50000000  0.50000000       0.125
   0.50000000  0.50000000  0.50000000       0.125
 
 position of ions in fractional coordinates (direct lattice) 
   0.00000000  0.16671900  0.50139100
   0.00000000  0.83328100  0.50139100
   0.00000000  0.66671900  0.00139100
   0.00000000  0.33328100  0.00139100
   0.50000000  0.16602100  0.00000400
   0.50000000  0.83397900  0.00000400
   0.50000000  0.66602100  0.50000400
   0.50000000  0.33397900  0.50000400
   0.00000000  0.00000000  0.01216200
   0.00000000  0.50000000  0.51216200
   0.50000000  0.00000000  0.47240000
   0.50000000  0.50000000  0.97240000
   0.00000000  0.00000000  0.31436200
   0.00000000  0.50000000  0.81436200
   0.00000000  0.16816900  0.20329900
   0.00000000  0.83183100  0.20329900
   0.00000000  0.66816900  0.70329900
   0.00000000  0.33183100  0.70329900
   0.00000000  0.16838200  0.79934600
   0.00000000  0.83161800  0.79934600
   0.00000000  0.66838200  0.29934600
   0.00000000  0.33161800  0.29934600
   0.50000000  0.06837200  0.99633700
   0.50000000  0.93162800  0.99633700
   0.50000000  0.56837200  0.49633700
   0.50000000  0.43162800  0.49633700
   0.50000000  0.09818400  0.50567900
   0.50000000  0.90181600  0.50567900
   0.50000000  0.59818400  0.00567900
   0.50000000  0.40181600  0.00567900
   0.50000000  0.23406000  0.50152500
   0.50000000  0.76594000  0.50152500
   0.50000000  0.73406000  0.00152500
   0.50000000  0.26594000  0.00152500
   0.00000000  0.00000000  0.69474100
   0.00000000  0.50000000  0.19474100
 
 position of ions in cartesian coordinates  (Angst):
   0.00000000  3.42597275  3.40555347
   0.00000000 17.12341125  3.40555347
   0.00000000 13.70066475  0.00944797
   0.00000000  6.84871925  0.00944797
   1.62631400  3.41162928  0.00002717
   1.62631400 17.13775472  0.00002717
   1.62631400 13.68632128  3.39613267
   1.62631400  6.86306272  3.39613267
   0.00000000  0.00000000  0.08260687
   0.00000000 10.27469200  3.47871237
   1.62631400  0.00000000  3.20864048
   1.62631400 10.27469200  6.60474598
   0.00000000  0.00000000  2.13521303
   0.00000000 10.27469200  5.53131853
   0.00000000  3.45576936  1.38084970
   0.00000000 17.09361464  1.38084970
   0.00000000 13.73046136  4.77695520
   0.00000000  6.81892264  4.77695520
   0.00000000  3.46014638  5.42932669
   0.00000000 17.08923762  5.42932669
   0.00000000 13.73483838  2.03322119
   0.00000000  6.81454562  2.03322119
   1.62631400  1.40500248  6.76733113
   1.62631400 19.14438152  6.76733113
   1.62631400 11.67969448  3.37122563
   1.62631400  8.86968952  3.37122563
   1.62631400  2.01762072  3.43467847
   1.62631400 18.53176328  3.43467847
   1.62631400 12.29231272  0.03857297
   1.62631400  8.25707128  0.03857297
   1.62631400  4.80978882  3.40646362
   1.62631400 15.73959518  3.40646362
   1.62631400 15.08448082  0.01035812
   1.62631400  5.46490318  0.01035812
   0.00000000  0.00000000  4.71882746
   0.00000000 10.27469200  1.32272196
 


--------------------------------------------------------------------------------------------------------


 k-point  1 :   0.0000 0.0000 0.0000  plane waves:    8263
 k-point  2 :   0.5000 0.0000 0.0000  plane waves:    8230
 k-point  3 :   0.0000 0.5000 0.0000  plane waves:    8264
 k-point  4 :   0.5000 0.5000 0.0000  plane waves:    8208
 k-point  5 :   0.0000 0.0000 0.5000  plane waves:    8302
 k-point  6 :   0.5000 0.0000 0.5000  plane waves:    8272
 k-point  7 :   0.0000 0.5000 0.5000  plane waves:    8280
 k-point  8 :   0.5000 0.5000 0.5000  plane waves:    8248

 maximum and minimum number of plane-waves per node :      8302     8208

 maximum number of plane-waves:      8302
 maximum index in each direction: 
   IXMAX=    5   IYMAX=   33   IZMAX=   11
   IXMIN=   -5   IYMIN=  -34   IZMIN=  -11

 WARNING: aliasing errors must be expected set NGX to  22 to avoid them
 WARNING: aliasing errors must be expected set NGY to 136 to avoid them
 WARNING: aliasing errors must be expected set NGZ to  46 to avoid them
 aliasing errors are usually negligible using standard VASP settings
 and one can safely disregard these warnings

 serial   3D FFT for wavefunctions
 parallel 3D FFT for charge:
    minimum data exchange during FFTs selected (reduces bandwidth)


 total amount of memory used by VASP on root node   265373. kBytes
========================================================================

   base      :      30000. kBytes
   nonlr-proj:       7332. kBytes
   fftplans  :      17416. kBytes
   grid      :      35030. kBytes
   one-center:        559. kBytes
   wavefun   :     175036. kBytes
 
     INWAV:  cpu time    0.00: real time    0.00
 Broyden mixing: mesh for mixing (old mesh)
   NGX = 11   NGY = 67   NGZ = 23
  (NGX  = 32   NGY  =216   NGZ  = 72)
  gives a total of  16951 points

 initial charge density was supplied:
 charge density of overlapping atoms calculated
 number of electron     262.0000000 magnetization 
 keeping initial charge density in first step


--------------------------------------------------------------------------------------------------------


 Maximum index for non-local projection operator         1919
 Maximum index for augmentation-charges         4741 (set IRDMAX)


--------------------------------------------------------------------------------------------------------


 First call to EWALD:  gamma=   0.231
 Maximum number of real-space cells 6x 1x 3
 Maximum number of reciprocal cells 1x 7x 2

 FEWALD executed in parallel
    FEWALD:  cpu time    0.00: real time    0.01


----------------------------------------- Iteration    1(   1)  ---------------------------------------


    POTLOK:  cpu time    0.18: real time    0.36
    SETDIJ:  cpu time    0.04: real time    0.08
    EDDIAG:  cpu time    2.59: real time    4.49
  RMM-DIIS:  cpu time    5.78: real time   10.90
    ORTHCH:  cpu time    0.64: real time    1.28
       DOS:  cpu time    0.00: real time    0.00
    --------------------------------------------
      LOOP:  cpu time    9.23: real time   17.11

 eigenvalue-minimisations  :  1256
 total energy-change (2. order) : 0.3219930E+04  (-0.9822923E+04)
 number of electron     262.0000000 magnetization 
 augmentation part      262.0000000 magnetization 

 Free energy of the ion-electron system (eV)
  ---------------------------------------------------
  alpha Z        PSCENC =       943.57652748
  Ewald energy   TEWEN  =    -15991.18747535
  -Hartree energ DENC   =     -6693.60015543
  -exchange      EXHF   =         0.00000000
  -V(xc)+E(xc)   XCENC  =       902.22514073
  PAW double counting   =     19213.82102697   -19422.08171028
  entropy T*S    EENTRO =         0.04782480
  eigenvalues    EBANDS =      1763.03102931
  atomic energy  EATOM  =     22504.09828397
  ---------------------------------------------------
  free energy    TOTEN  =      3219.93049221 eV

  energy without entropy =     3219.88266741  energy(sigma->0) =     3219.91455061


--------------------------------------------------------------------------------------------------------




----------------------------------------- Iteration    1(   2)  ---------------------------------------


    EDDIAG:  cpu time    2.58: real time    4.80
  RMM-DIIS:  cpu time    5.66: real time    8.64
    ORTHCH:  cpu time    0.62: real time    0.62
       DOS:  cpu time    0.00: real time    0.00
    --------------------------------------------
      LOOP:  cpu time    8.87: real time   14.07

 eigenvalue-minimisations  :  1256
 total energy-change (2. order) :-0.2207882E+04  (-0.2486982E+04)
 number of electron     262.0000000 magnetization 
 augmentation part      262.0000000 magnetization 

 Free energy of the ion-electron system (eV)
  ---------------------------------------------------
  alpha Z        PSCENC =       943.57652748
  Ewald energy   TEWEN  =    -15991.18747535
  -Hartree energ DENC   =     -6693.60015543
  -exchange      EXHF   =         0.00000000
  -V(xc)+E(xc)   XCENC  =       902.22514073
  PAW double counting   =     19213.82102697   -19422.08171028
  entropy T*S    EENTRO =         0.00168185
  eigenvalues    EBANDS =      -444.80442633
  atomic energy  EATOM  =     22504.09828397
  ---------------------------------------------------
  free energy    TOTEN  =      1012.04889361 eV

  energy without entropy =     1012.04721176  energy(sigma->0) =     1012.04833299


--------------------------------------------------------------------------------------------------------




----------------------------------------- Iteration    1(   3)  ---------------------------------------


    EDDIAG:  cpu time    2.58: real time    2.59
  RMM-DIIS:  cpu time    5.79: real time    6.56
    ORTHCH:  cpu time    0.63: real time    0.73
       DOS:  cpu time    0.00: real time    0.00
    --------------------------------------------
      LOOP:  cpu time    9.00: real time    9.89

 eigenvalue-minimisations  :  1256
 total energy-change (2. order) :-0.6684831E+03  (-0.6616731E+03)
 number of electron     262.0000000 magnetization 
 augmentation part      262.0000000 magnetization 

 Free energy of the ion-electron system (eV)
  ---------------------------------------------------
  alpha Z        PSCENC =       943.57652748
  Ewald energy   TEWEN  =    -15991.18747535
  -Hartree energ DENC   =     -6693.60015543
  -exchange      EXHF   =         0.00000000
  -V(xc)+E(xc)   XCENC  =       902.22514073
  PAW double counting   =     19213.82102697   -19422.08171028
  entropy T*S    EENTRO =        -0.09116403
  eigenvalues    EBANDS =     -1113.19472931
  atomic energy  EATOM  =     22504.09828397
  ---------------------------------------------------
  free energy    TOTEN  =       343.56574475 eV

  energy without entropy =      343.65690879  energy(sigma->0) =      343.59613277


--------------------------------------------------------------------------------------------------------




----------------------------------------- Iteration    1(   4)  ---------------------------------------


    EDDIAG:  cpu time    2.58: real time    4.34
  RMM-DIIS:  cpu time    5.69: real time    8.66
    ORTHCH:  cpu time    0.62: real time    1.07
       DOS:  cpu time    0.00: real time    0.01
    --------------------------------------------
      LOOP:  cpu time    8.90: real time   14.08

 eigenvalue-minimisations  :  1256
 total energy-change (2. order) :-0.2758961E+03  (-0.2364540E+03)
 number of electron     262.0000000 magnetization 
 augmentation part      262.0000000 magnetization 

 Free energy of the ion-electron system (eV)
  ---------------------------------------------------
  alpha Z        PSCENC =       943.57652748
  Ewald energy   TEWEN  =    -15991.18747535
  -Hartree energ DENC   =     -6693.60015543
  -exchange      EXHF   =         0.00000000
  -V(xc)+E(xc)   XCENC  =       902.22514073
  PAW double counting   =     19213.82102697   -19422.08171028
  entropy T*S    EENTRO =         0.04091923
  eigenvalues    EBANDS =     -1389.22291334
  atomic energy  EATOM  =     22504.09828397
  ---------------------------------------------------
  free energy    TOTEN  =        67.66964399 eV

  energy without entropy =       67.62872476  energy(sigma->0) =       67.65600425


--------------------------------------------------------------------------------------------------------




----------------------------------------- Iteration    1(   5)  ---------------------------------------


    EDDIAG:  cpu time    2.56: real time    4.55
  RMM-DIIS:  cpu time    5.86: real time   10.86
    ORTHCH:  cpu time    0.65: real time    1.18
       DOS:  cpu time    0.00: real time    0.00
    --------------------------------------------
      LOOP:  cpu time    9.07: real time   16.60

 eigenvalue-minimisations  :  1256
 total energy-change (2. order) :-0.1575000E+03  (-0.1235339E+03)
 number of electron     262.0000000 magnetization 
 augmentation part      262.0000000 magnetization 

 Free energy of the ion-electron system (eV)
  ---------------------------------------------------
  alpha Z        PSCENC =       943.57652748
  Ewald energy   TEWEN  =    -15991.18747535
  -Hartree energ DENC   =     -6693.60015543
  -exchange      EXHF   =         0.00000000
  -V(xc)+E(xc)   XCENC  =       902.22514073
  PAW double counting   =     19213.82102697   -19422.08171028
  entropy T*S    EENTRO =         0.06897188
  eigenvalues    EBANDS =     -1546.75092226
  atomic energy  EATOM  =     22504.09828397
  ---------------------------------------------------
  free energy    TOTEN  =       -89.83031228 eV

  energy without entropy =      -89.89928416  energy(sigma->0) =      -89.85330291


--------------------------------------------------------------------------------------------------------




----------------------------------------- Iteration    1(   6)  ---------------------------------------


    EDDIAG:  cpu time    2.60: real time    5.01
  RMM-DIIS:  cpu time    5.53: real time   10.21
    ORTHCH:  cpu time    0.59: real time    0.96
       DOS:  cpu time    0.00: real time    0.00
    --------------------------------------------
      LOOP:  cpu time    8.73: real time   16.19

 eigenvalue-minimisations  :  1256
 total energy-change (2. order) :-0.7116215E+02  (-0.5376991E+02)
 number of electron     262.0000000 magnetization 
 augmentation part      262.0000000 magnetization 

 Free energy of the ion-electron system (eV)
  ---------------------------------------------------
  alpha Z        PSCENC =       943.57652748
  Ewald energy   TEWEN  =    -15991.18747535
  -Hartree energ DENC   =     -6693.60015543
  -exchange      EXHF   =         0.00000000
  -V(xc)+E(xc)   XCENC  =       902.22514073
  PAW double counting   =     19213.82102697   -19422.08171028
  entropy T*S    EENTRO =         0.07519865
  eigenvalues    EBANDS =     -1617.91929421
  atomic energy  EATOM  =     22504.09828397
  ---------------------------------------------------
  free energy    TOTEN  =      -160.99245746 eV

  energy without entropy =     -161.06765611  energy(sigma->0) =     -161.01752368


--------------------------------------------------------------------------------------------------------




----------------------------------------- Iteration    1(   7)  ---------------------------------------


    EDDIAG:  cpu time    2.48: real time    4.89
  RMM-DIIS:  cpu time    5.37: real time    9.84
    ORTHCH:  cpu time    0.60: real time    1.20
       DOS:  cpu time    0.01: real time    0.00
    --------------------------------------------
      LOOP:  cpu time    8.46: real time   15.93

 eigenvalue-minimisations  :  1256
 total energy-change (2. order) :-0.3658508E+02  (-0.2927143E+02)
 number of electron     262.0000000 magnetization 
 augmentation part      262.0000000 magnetization 

 Free energy of the ion-electron system (eV)
  ---------------------------------------------------
  alpha Z        PSCENC =       943.57652748
  Ewald energy   TEWEN  =    -15991.18747535
  -Hartree energ DENC   =     -6693.60015543
  -exchange      EXHF   =         0.00000000
  -V(xc)+E(xc)   XCENC  =       902.22514073
  PAW double counting   =     19213.82102697   -19422.08171028
  entropy T*S    EENTRO =         0.13240193
  eigenvalues    EBANDS =     -1654.56157839
  atomic energy  EATOM  =     22504.09828397
  ---------------------------------------------------
  free energy    TOTEN  =      -197.57753836 eV

  energy without entropy =     -197.70994029  energy(sigma->0) =     -197.62167234


--------------------------------------------------------------------------------------------------------




----------------------------------------- Iteration    1(   8)  ---------------------------------------


    EDDIAG:  cpu time    2.49: real time    4.74
  RMM-DIIS:  cpu time    4.99: real time    8.87
    ORTHCH:  cpu time    0.59: real time    1.10
       DOS:  cpu time    0.00: real time    0.00
    --------------------------------------------
      LOOP:  cpu time    8.07: real time   14.72

 eigenvalue-minimisations  :  1256
 total energy-change (2. order) :-0.1447209E+02  (-0.1163570E+02)
 number of electron     262.0000000 magnetization 
 augmentation part      262.0000000 magnetization 

 Free energy of the ion-electron system (eV)
  ---------------------------------------------------
  alpha Z        PSCENC =       943.57652748
  Ewald energy   TEWEN  =    -15991.18747535
  -Hartree energ DENC   =     -6693.60015543
  -exchange      EXHF   =         0.00000000
  -V(xc)+E(xc)   XCENC  =       902.22514073
  PAW double counting   =     19213.82102697   -19422.08171028
  entropy T*S    EENTRO =         0.17355114
  eigenvalues    EBANDS =     -1669.07482219
  atomic energy  EATOM  =     22504.09828397
  ---------------------------------------------------
  free energy    TOTEN  =      -212.04963295 eV

  energy without entropy =     -212.22318409  energy(sigma->0) =     -212.10748333


--------------------------------------------------------------------------------------------------------




----------------------------------------- Iteration    1(   9)  ---------------------------------------


    EDDIAG:  cpu time    2.44: real time    3.98
  RMM-DIIS:  cpu time   14.69: real time   22.47
    ORTHCH:  cpu time    0.60: real time    0.61
       DOS:  cpu time    0.00: real time    0.00
    --------------------------------------------
      LOOP:  cpu time   17.73: real time   27.06

 eigenvalue-minimisations  :  4002
 total energy-change (2. order) :-0.1420972E+02  (-0.1291730E+02)
 number of electron     262.0000000 magnetization 
 augmentation part      262.0000000 magnetization 

 Free energy of the ion-electron system (eV)
  ---------------------------------------------------
  alpha Z        PSCENC =       943.57652748
  Ewald energy   TEWEN  =    -15991.18747535
  -Hartree energ DENC   =     -6693.60015543
  -exchange      EXHF   =         0.00000000
  -V(xc)+E(xc)   XCENC  =       902.22514073
  PAW double counting   =     19213.82102697   -19422.08171028
  entropy T*S    EENTRO =         0.20704197
  eigenvalues    EBANDS =     -1683.31803339
  atomic energy  EATOM  =     22504.09828397
  ---------------------------------------------------
  free energy    TOTEN  =      -226.25935332 eV

  energy without entropy =     -226.46639529  energy(sigma->0) =     -226.32836731


--------------------------------------------------------------------------------------------------------




----------------------------------------- Iteration    1(  10)  ---------------------------------------


    EDDIAG:  cpu time    2.44: real time    2.50
  RMM-DIIS:  cpu time   14.75: real time   19.43
    ORTHCH:  cpu time    0.58: real time    1.04
       DOS:  cpu time    0.00: real time    0.00
    --------------------------------------------
      LOOP:  cpu time   17.78: real time   22.98

 eigenvalue-minimisations  :  3973
 total energy-change (2. order) :-0.3114962E+00  (-0.6244879E+00)
 number of electron     262.0000000 magnetization 
 augmentation part      262.0000000 magnetization 

 Free energy of the ion-electron system (eV)
  ---------------------------------------------------
  alpha Z        PSCENC =       943.57652748
  Ewald energy   TEWEN  =    -15991.18747535
  -Hartree energ DENC   =     -6693.60015543
  -exchange      EXHF   =         0.00000000
  -V(xc)+E(xc)   XCENC  =       902.22514073
  PAW double counting   =     19213.82102697   -19422.08171028
  entropy T*S    EENTRO =         0.19384172
  eigenvalues    EBANDS =     -1683.61632933
  atomic energy  EATOM  =     22504.09828397
  ---------------------------------------------------
  free energy    TOTEN  =      -226.57084951 eV

  energy without entropy =     -226.76469123  energy(sigma->0) =     -226.63546342


--------------------------------------------------------------------------------------------------------




----------------------------------------- Iteration    1(  11)  ---------------------------------------


    EDDIAG:  cpu time    2.42: real time    4.24
  RMM-DIIS:  cpu time   14.18: real time   25.80
    ORTHCH:  cpu time    0.60: real time    1.11
       DOS:  cpu time    0.00: real time    0.00
    --------------------------------------------
      LOOP:  cpu time   17.21: real time   31.15

 eigenvalue-minimisations  :  3637
 total energy-change (2. order) :-0.2408337E+00  (-0.2049156E+00)
 number of electron     262.0000000 magnetization 
 augmentation part      262.0000000 magnetization 

 Free energy of the ion-electron system (eV)
  ---------------------------------------------------
  alpha Z        PSCENC =       943.57652748
  Ewald energy   TEWEN  =    -15991.18747535
  -Hartree energ DENC   =     -6693.60015543
  -exchange      EXHF   =         0.00000000
  -V(xc)+E(xc)   XCENC  =       902.22514073
  PAW double counting   =     19213.82102697   -19422.08171028
  entropy T*S    EENTRO =         0.18291137
  eigenvalues    EBANDS =     -1683.84623269
  atomic energy  EATOM  =     22504.09828397
  ---------------------------------------------------
  free energy    TOTEN  =      -226.81168322 eV

  energy without entropy =     -226.99459459  energy(sigma->0) =     -226.87265368


--------------------------------------------------------------------------------------------------------




----------------------------------------- Iteration    1(  12)  ---------------------------------------


    EDDIAG:  cpu time    2.47: real time    4.60
  RMM-DIIS:  cpu time   11.21: real time   16.87
    ORTHCH:  cpu time    0.58: real time    1.11
       DOS:  cpu time    0.00: real time    0.00
    CHARGE:  cpu time    0.98: real time    1.42
    MIXING:  cpu time    0.01: real time    0.01
    --------------------------------------------
      LOOP:  cpu time   15.25: real time   24.02

 eigenvalue-minimisations  :  3029
 total energy-change (2. order) :-0.9075648E-01  (-0.8448225E-01)
 number of electron     262.0000188 magnetization 
 augmentation part       77.5241497 magnetization 

 Broyden mixing:
  rms(total) = 0.44903E+01    rms(broyden)= 0.44751E+01
  rms(prec ) = 0.47630E+01
  weight for this iteration     100.00

 Free energy of the ion-electron system (eV)
  ---------------------------------------------------
  alpha Z        PSCENC =       943.57652748
  Ewald energy   TEWEN  =    -15991.18747535
  -Hartree energ DENC   =     -6693.60015543
  -exchange      EXHF   =         0.00000000
  -V(xc)+E(xc)   XCENC  =       902.22514073
  PAW double counting   =     19213.82102697   -19422.08171028
  entropy T*S    EENTRO =         0.17786120
  eigenvalues    EBANDS =     -1683.93193900
  atomic energy  EATOM  =     22504.09828397
  ---------------------------------------------------
  free energy    TOTEN  =      -226.90243970 eV

  energy without entropy =     -227.08030090  energy(sigma->0) =     -226.96172677


--------------------------------------------------------------------------------------------------------




----------------------------------------- Iteration    1(  13)  ---------------------------------------


    POTLOK:  cpu time    0.16: real time    0.25
    SETDIJ:  cpu time    0.04: real time    0.08
    EDDIAG:  cpu time    2.43: real time    2.56
  RMM-DIIS:  cpu time   11.77: real time   16.31
    ORTHCH:  cpu time    0.59: real time    0.91
       DOS:  cpu time    0.00: real time    0.00
    CHARGE:  cpu time    0.95: real time    1.47
    MIXING:  cpu time    0.01: real time    0.01
    --------------------------------------------
      LOOP:  cpu time   15.95: real time   21.61

 eigenvalue-minimisations  :  2964
 total energy-change (2. order) : 0.1579920E+02  (-0.2426043E+02)
 number of electron     261.9999801 magnetization 
 augmentation part       84.0335444 magnetization 

 Broyden mixing:
  rms(total) = 0.63632E+01    rms(broyden)= 0.63598E+01
  rms(prec ) = 0.70690E+01
  weight for this iteration     100.00

 eigenvalues of (default mixing * dielectric matrix)
  average eigenvalue GAMMA=   0.3437
  0.3437

 Free energy of the ion-electron system (eV)
  ---------------------------------------------------
  alpha Z        PSCENC =       943.57652748
  Ewald energy   TEWEN  =    -15991.18747535
  -Hartree energ DENC   =     -6824.60114525
  -exchange      EXHF   =         0.00000000
  -V(xc)+E(xc)   XCENC  =       916.00371721
  PAW double counting   =     20401.32728457   -20589.58424536
  entropy T*S    EENTRO =        -0.05656447
  eigenvalues    EBANDS =     -1570.67961939
  atomic energy  EATOM  =     22504.09828397
  ---------------------------------------------------
  free energy    TOTEN  =      -211.10323660 eV

  energy without entropy =     -211.04667212  energy(sigma->0) =     -211.08438177


--------------------------------------------------------------------------------------------------------




----------------------------------------- Iteration    1(  14)  ---------------------------------------


    POTLOK:  cpu time    0.16: real time    0.23
    SETDIJ:  cpu time    0.04: real time    0.08
    EDDIAG:  cpu time    2.41: real time    4.13
  RMM-DIIS:  cpu time   11.06: real time   19.02
    ORTHCH:  cpu time    0.61: real time    1.16
       DOS:  cpu time    0.00: real time    0.00
    CHARGE:  cpu time    0.95: real time    1.72
    MIXING:  cpu time    0.01: real time    0.02
    --------------------------------------------
      LOOP:  cpu time   15.25: real time   26.36

 eigenvalue-minimisations  :  2746
 total energy-change (2. order) :-0.4688509E+02  (-0.6593234E+01)
 number of electron     261.9999809 magnetization 
 augmentation part       80.2153908 magnetization 

 Broyden mixing:
  rms(total) = 0.11485E+02    rms(broyden)= 0.11484E+02
  rms(prec ) = 0.12814E+02
  weight for this iteration     100.00

 eigenvalues of (default mixing * dielectric matrix)
  average eigenvalue GAMMA=   0.2343
  0.3959  0.0727

 Free energy of the ion-electron system (eV)
  ---------------------------------------------------
  alpha Z        PSCENC =       943.57652748
  Ewald energy   TEWEN  =    -15991.18747535
  -Hartree energ DENC   =     -6820.67843837
  -exchange      EXHF   =         0.00000000
  -V(xc)+E(xc)   XCENC  =       914.76200060
  PAW double counting   =     20721.68753498   -20918.85268045
  entropy T*S    EENTRO =         0.13170750
  eigenvalues    EBANDS =     -1611.52578728
  atomic energy  EATOM  =     22504.09828397
  ---------------------------------------------------
  free energy    TOTEN  =      -257.98832692 eV

  energy without entropy =     -258.12003442  energy(sigma->0) =     -258.03222942


--------------------------------------------------------------------------------------------------------




----------------------------------------- Iteration    1(  15)  ---------------------------------------


    POTLOK:  cpu time    0.18: real time    0.35
    SETDIJ:  cpu time    0.04: real time    0.08
    EDDIAG:  cpu time    2.52: real time    4.44
  RMM-DIIS:  cpu time   11.30: real time   18.42
    ORTHCH:  cpu time    0.62: real time    1.09
       DOS:  cpu time    0.00: real time    0.00
    CHARGE:  cpu time    0.96: real time    1.44
    MIXING:  cpu time    0.01: real time    0.01
    --------------------------------------------
      LOOP:  cpu time   15.62: real time   25.83

 eigenvalue-minimisations  :  2785
 total energy-change (2. order) : 0.7198705E+01  (-0.1654075E+01)
 number of electron     261.9999770 magnetization 
 augmentation part       80.3965397 magnetization 

 Broyden mixing:
  rms(total) = 0.11732E+02    rms(broyden)= 0.11731E+02
  rms(prec ) = 0.13165E+02
  weight for this iteration     100.00

 eigenvalues of (default mixing * dielectric matrix)
  average eigenvalue GAMMA=   0.1761
  0.4052  0.0615  0.0615

 Free energy of the ion-electron system (eV)
  ---------------------------------------------------
  alpha Z        PSCENC =       943.57652748
  Ewald energy   TEWEN  =    -15991.18747535
  -Hartree energ DENC   =     -6818.72150041
  -exchange      EXHF   =         0.00000000
  -V(xc)+E(xc)   XCENC  =       914.62561570
  PAW double counting   =     20878.68193702   -21079.81962031
  entropy T*S    EENTRO =        -0.12653379
  eigenvalues    EBANDS =     -1601.91685653
  atomic energy  EATOM  =     22504.09828397
  ---------------------------------------------------
  free energy    TOTEN  =      -250.78962221 eV

  energy without entropy =     -250.66308842  energy(sigma->0) =     -250.74744428


--------------------------------------------------------------------------------------------------------




----------------------------------------- Iteration    1(  16)  ---------------------------------------


    POTLOK:  cpu time    0.17: real time    0.20
    SETDIJ:  cpu time    0.04: real time    0.08
    EDDIAG:  cpu time    2.51: real time    3.72
  RMM-DIIS:  cpu time   11.39: real time   19.30
    ORTHCH:  cpu time    0.61: real time    1.02
       DOS:  cpu time    0.00: real time    0.01
    CHARGE:  cpu time    0.96: real time    1.89
    MIXING:  cpu time    0.01: real time    0.02
    --------------------------------------------
      LOOP:  cpu time   15.70: real time   26.25

 eigenvalue-minimisations  :  2722
 total energy-change (2. order) : 0.3234848E+02  (-0.6327564E+00)
 number of electron     261.9999897 magnetization 
 augmentation part       80.0666246 magnetization 

 Broyden mixing:
  rms(total) = 0.73127E+01    rms(broyden)= 0.73086E+01
  rms(prec ) = 0.84550E+01
  weight for this iteration     100.00

 eigenvalues of (default mixing * dielectric matrix)
  average eigenvalue GAMMA=   0.2119
  0.4120  0.1965  0.1965  0.0428

 Free energy of the ion-electron system (eV)
  ---------------------------------------------------
  alpha Z        PSCENC =       943.57652748
  Ewald energy   TEWEN  =    -15991.18747535
  -Hartree energ DENC   =     -6819.90241363
  -exchange      EXHF   =         0.00000000
  -V(xc)+E(xc)   XCENC  =       914.69962161
  PAW double counting   =     20951.03566877   -21151.88887032
  entropy T*S    EENTRO =        -0.05920203
  eigenvalues    EBANDS =     -1568.81328589
  atomic energy  EATOM  =     22504.09828397
  ---------------------------------------------------
  free energy    TOTEN  =      -218.44114539 eV

  energy without entropy =     -218.38194337  energy(sigma->0) =     -218.42141139


--------------------------------------------------------------------------------------------------------




----------------------------------------- Iteration    1(  17)  ---------------------------------------


    POTLOK:  cpu time    0.19: real time    0.38
    SETDIJ:  cpu time    0.04: real time    0.08
    EDDIAG:  cpu time    2.55: real time    4.03
  RMM-DIIS:  cpu time   11.59: real time   16.50
    ORTHCH:  cpu time    0.62: real time    0.98
       DOS:  cpu time    0.00: real time    0.00
    CHARGE:  cpu time    0.97: real time    1.69
    MIXING:  cpu time    0.01: real time    0.01
    --------------------------------------------
      LOOP:  cpu time   15.97: real time   23.67

 eigenvalue-minimisations  :  2812
 total energy-change (2. order) :-0.3021398E+02  (-0.1603336E+01)
 number of electron     261.9999846 magnetization 
 augmentation part       80.5158475 magnetization 

 Broyden mixing:
  rms(total) = 0.11902E+02    rms(broyden)= 0.11900E+02
  rms(prec ) = 0.14792E+02
  weight for this iteration     100.00

 eigenvalues of (default mixing * dielectric matrix)
  average eigenvalue GAMMA=   0.2341
  0.3711  0.3711  0.3329  0.0478  0.0478

 Free energy of the ion-electron system (eV)
  ---------------------------------------------------
  alpha Z        PSCENC =       943.57652748
  Ewald energy   TEWEN  =    -15991.18747535
  -Hartree energ DENC   =     -6817.33898358
  -exchange      EXHF   =         0.00000000
  -V(xc)+E(xc)   XCENC  =       914.48429606
  PAW double counting   =     21015.03695371   -21219.90526837
  entropy T*S    EENTRO =        -0.06922943
  eigenvalues    EBANDS =     -1597.35023487
  atomic energy  EATOM  =     22504.09828397
  ---------------------------------------------------
  free energy    TOTEN  =      -248.65513038 eV

  energy without entropy =     -248.58590095  energy(sigma->0) =     -248.63205391


--------------------------------------------------------------------------------------------------------




----------------------------------------- Iteration    1(  18)  ---------------------------------------


    POTLOK:  cpu time    0.19: real time    0.31
    SETDIJ:  cpu time    0.04: real time    0.08
    EDDIAG:  cpu time    2.59: real time    4.36
  RMM-DIIS:  cpu time   12.38: real time   19.96
    ORTHCH:  cpu time    0.62: real time    1.11
       DOS:  cpu time    0.00: real time    0.00
    CHARGE:  cpu time    1.01: real time    1.87
    MIXING:  cpu time    0.01: real time    0.02
    --------------------------------------------
      LOOP:  cpu time   16.85: real time   27.72

 eigenvalue-minimisations  :  2946
 total energy-change (2. order) :-0.3955752E+01  (-0.1704377E+01)
 number of electron     261.9999873 magnetization 
 augmentation part       80.5694659 magnetization 

 Broyden mixing:
  rms(total) = 0.10522E+02    rms(broyden)= 0.10521E+02
  rms(prec ) = 0.12222E+02
  weight for this iteration     100.00

 eigenvalues of (default mixing * dielectric matrix)
  average eigenvalue GAMMA=   0.2281
  0.5012  0.5012  0.1939  0.0737  0.0493  0.0493

 Free energy of the ion-electron system (eV)
  ---------------------------------------------------
  alpha Z        PSCENC =       943.57652748
  Ewald energy   TEWEN  =    -15991.18747535
  -Hartree energ DENC   =     -6817.18246033
  -exchange      EXHF   =         0.00000000
  -V(xc)+E(xc)   XCENC  =       914.69029281
  PAW double counting   =     21199.29574421   -21404.37217762
  entropy T*S    EENTRO =        -0.05493152
  eigenvalues    EBANDS =     -1601.47468562
  atomic energy  EATOM  =     22504.09828397
  ---------------------------------------------------
  free energy    TOTEN  =      -252.61088197 eV

  energy without entropy =     -252.55595045  energy(sigma->0) =     -252.59257146


--------------------------------------------------------------------------------------------------------




----------------------------------------- Iteration    1(  19)  ---------------------------------------


    POTLOK:  cpu time    0.17: real time    0.35
    SETDIJ:  cpu time    0.04: real time    0.08
    EDDIAG:  cpu time    2.57: real time    4.18
  RMM-DIIS:  cpu time   11.91: real time   17.08
    ORTHCH:  cpu time    0.60: real time    0.60
       DOS:  cpu time    0.00: real time    0.00
    CHARGE:  cpu time    0.99: real time    0.99
    MIXING:  cpu time    0.01: real time    0.01
    --------------------------------------------
      LOOP:  cpu time   16.29: real time   23.28

 eigenvalue-minimisations  :  2869
 total energy-change (2. order) : 0.2387659E+02  (-0.6732461E+00)
 number of electron     261.9999893 magnetization 
 augmentation part       80.4685316 magnetization 

 Broyden mixing:
  rms(total) = 0.80931E+01    rms(broyden)= 0.80914E+01
  rms(prec ) = 0.96140E+01
  weight for this iteration     100.00

 eigenvalues of (default mixing * dielectric matrix)
  average eigenvalue GAMMA=   0.2412
  0.6037  0.6037  0.1487  0.1190  0.1190  0.0471  0.0471

 Free energy of the ion-electron system (eV)
  ---------------------------------------------------
  alpha Z        PSCENC =       943.57652748
  Ewald energy   TEWEN  =    -15991.18747535
  -Hartree energ DENC   =     -6821.16475628
  -exchange      EXHF   =         0.00000000
  -V(xc)+E(xc)   XCENC  =       915.18874925
  PAW double counting   =     21369.55315562   -21576.91273031
  entropy T*S    EENTRO =        -0.14331661
  eigenvalues    EBANDS =     -1571.74273061
  atomic energy  EATOM  =     22504.09828397
  ---------------------------------------------------
  free energy    TOTEN  =      -228.73429284 eV

  energy without entropy =     -228.59097623  energy(sigma->0) =     -228.68652063


--------------------------------------------------------------------------------------------------------




----------------------------------------- Iteration    1(  20)  ---------------------------------------


    POTLOK:  cpu time    0.18: real time    0.18
    SETDIJ:  cpu time    0.04: real time    0.04
    EDDIAG:  cpu time    2.53: real time    3.49
  RMM-DIIS:  cpu time   10.69: real time   18.49
    ORTHCH:  cpu time    0.60: real time    1.22
       DOS:  cpu time    0.00: real time    0.00
    CHARGE:  cpu time    0.99: real time    1.47
    MIXING:  cpu time    0.01: real time    0.02
    --------------------------------------------
      LOOP:  cpu time   15.05: real time   24.92

 eigenvalue-minimisations  :  2791
 total energy-change (2. order) :-0.2433735E+01  (-0.7578976E+00)
 number of electron     261.9999855 magnetization 
 augmentation part       80.6359341 magnetization 

 Broyden mixing:
  rms(total) = 0.96884E+01    rms(broyden)= 0.96870E+01
  rms(prec ) = 0.11794E+02
  weight for this iteration     100.00

 eigenvalues of (default mixing * dielectric matrix)
  average eigenvalue GAMMA=   0.2945
  1.0355  0.6457  0.1710  0.1710  0.1844  0.0553  0.0465  0.0465

 Free energy of the ion-electron system (eV)
  ---------------------------------------------------
  alpha Z        PSCENC =       943.57652748
  Ewald energy   TEWEN  =    -15991.18747535
  -Hartree energ DENC   =     -6822.57220016
  -exchange      EXHF   =         0.00000000
  -V(xc)+E(xc)   XCENC  =       915.48795107
  PAW double counting   =     21507.40950668   -21715.98554216
  entropy T*S    EENTRO =         0.14362644
  eigenvalues    EBANDS =     -1572.13870604
  atomic energy  EATOM  =     22504.09828397
  ---------------------------------------------------
  free energy    TOTEN  =      -231.16802807 eV

  energy without entropy =     -231.31165452  energy(sigma->0) =     -231.21590355


--------------------------------------------------------------------------------------------------------




----------------------------------------- Iteration    1(  21)  ---------------------------------------


    POTLOK:  cpu time    0.19: real time    0.38
    SETDIJ:  cpu time    0.04: real time    0.08
    EDDIAG:  cpu time    2.49: real time    4.28
  RMM-DIIS:  cpu time   10.72: real time   17.89
    ORTHCH:  cpu time    0.59: real time    1.05
       DOS:  cpu time    0.00: real time    0.00
    CHARGE:  cpu time    0.99: real time    1.98
    MIXING:  cpu time    0.01: real time    0.02
    --------------------------------------------
      LOOP:  cpu time   15.02: real time   25.68

 eigenvalue-minimisations  :  2957
 total energy-change (2. order) :-0.1207722E+02  (-0.7598416E+00)
 number of electron     261.9999864 magnetization 
 augmentation part       81.4712478 magnetization 

 Broyden mixing:
  rms(total) = 0.10067E+02    rms(broyden)= 0.10066E+02
  rms(prec ) = 0.12150E+02
  weight for this iteration     100.00

 eigenvalues of (default mixing * dielectric matrix)
  average eigenvalue GAMMA=   0.3095
  1.3588  0.6381  0.1849  0.1849  0.1873  0.0699  0.0699  0.0457  0.0457

 Free energy of the ion-electron system (eV)
  ---------------------------------------------------
  alpha Z        PSCENC =       943.57652748
  Ewald energy   TEWEN  =    -15991.18747535
  -Hartree energ DENC   =     -6823.85625116
  -exchange      EXHF   =         0.00000000
  -V(xc)+E(xc)   XCENC  =       916.26255751
  PAW double counting   =     21855.77968361   -22065.85302315
  entropy T*S    EENTRO =        -0.12097831
  eigenvalues    EBANDS =     -1581.94457158
  atomic energy  EATOM  =     22504.09828397
  ---------------------------------------------------
  free energy    TOTEN  =      -243.24524698 eV

  energy without entropy =     -243.12426868  energy(sigma->0) =     -243.20492088


--------------------------------------------------------------------------------------------------------




----------------------------------------- Iteration    1(  22)  ---------------------------------------


    POTLOK:  cpu time    0.16: real time    0.21
    SETDIJ:  cpu time    0.04: real time    0.05
    EDDIAG:  cpu time    2.45: real time    3.24
  RMM-DIIS:  cpu time   10.24: real time   15.64
    ORTHCH:  cpu time    0.58: real time    0.89
       DOS:  cpu time    0.00: real time    0.01
    CHARGE:  cpu time    0.98: real time    1.69
    MIXING:  cpu time    0.01: real time    0.02
    --------------------------------------------
      LOOP:  cpu time   14.45: real time   21.77

 eigenvalue-minimisations  :  2840
 total energy-change (2. order) : 0.2201509E+02  (-0.8543515E+00)
 number of electron     261.9999842 magnetization 
 augmentation part       81.6530387 magnetization 

 Broyden mixing:
  rms(total) = 0.76269E+01    rms(broyden)= 0.76245E+01
  rms(prec ) = 0.94226E+01
  weight for this iteration     100.00

 eigenvalues of (default mixing * dielectric matrix)
  average eigenvalue GAMMA=   0.3202
  1.3932  0.7999  0.2556  0.1989  0.1989  0.1387  0.0699  0.0460  0.0460  0.0547

 Free energy of the ion-electron system (eV)
  ---------------------------------------------------
  alpha Z        PSCENC =       943.57652748
  Ewald energy   TEWEN  =    -15991.18747535
  -Hartree energ DENC   =     -6825.59501796
  -exchange      EXHF   =         0.00000000
  -V(xc)+E(xc)   XCENC  =       916.80281476
  PAW double counting   =     22072.85415132   -22284.24430093
  entropy T*S    EENTRO =         0.01318520
  eigenvalues    EBANDS =     -1557.54832971
  atomic energy  EATOM  =     22504.09828397
  ---------------------------------------------------
  free energy    TOTEN  =      -221.23016121 eV

  energy without entropy =     -221.24334642  energy(sigma->0) =     -221.23455628


--------------------------------------------------------------------------------------------------------




----------------------------------------- Iteration    1(  23)  ---------------------------------------


    POTLOK:  cpu time    0.16: real time    0.31
    SETDIJ:  cpu time    0.04: real time    0.08
    EDDIAG:  cpu time    2.47: real time    3.92
  RMM-DIIS:  cpu time   10.78: real time   17.19
    ORTHCH:  cpu time    0.58: real time    0.58
       DOS:  cpu time    0.00: real time    0.00
    CHARGE:  cpu time    0.98: real time    0.98
    MIXING:  cpu time    0.01: real time    0.01
    --------------------------------------------
      LOOP:  cpu time   15.02: real time   23.08

 eigenvalue-minimisations  :  2819
 total energy-change (2. order) :-0.8196670E+01  (-0.1000221E+01)
 number of electron     261.9999847 magnetization 
 augmentation part       81.0166213 magnetization 

 Broyden mixing:
  rms(total) = 0.10293E+02    rms(broyden)= 0.10291E+02
  rms(prec ) = 0.12122E+02
  weight for this iteration     100.00

 eigenvalues of (default mixing * dielectric matrix)
  average eigenvalue GAMMA=   0.3249
  1.6331  0.8067  0.2008  0.2008  0.2232  0.2232  0.0811  0.0461  0.0461  0.0562
  0.0562

 Free energy of the ion-electron system (eV)
  ---------------------------------------------------
  alpha Z        PSCENC =       943.57652748
  Ewald energy   TEWEN  =    -15991.18747535
  -Hartree energ DENC   =     -6826.80469804
  -exchange      EXHF   =         0.00000000
  -V(xc)+E(xc)   XCENC  =       916.76349935
  PAW double counting   =     22176.00061715   -22390.26070560
  entropy T*S    EENTRO =         0.02921833
  eigenvalues    EBANDS =     -1561.64209811
  atomic energy  EATOM  =     22504.09828397
  ---------------------------------------------------
  free energy    TOTEN  =      -229.42683081 eV

  energy without entropy =     -229.45604914  energy(sigma->0) =     -229.43657026


--------------------------------------------------------------------------------------------------------




----------------------------------------- Iteration    1(  24)  ---------------------------------------


    POTLOK:  cpu time    0.18: real time    0.18
    SETDIJ:  cpu time    0.04: real time    0.07
    EDDIAG:  cpu time    2.44: real time    2.73
  RMM-DIIS:  cpu time   10.94: real time   14.06
    ORTHCH:  cpu time    0.60: real time    0.78
       DOS:  cpu time    0.00: real time    0.00
    CHARGE:  cpu time    0.99: real time    1.96
    MIXING:  cpu time    0.01: real time    0.02
    --------------------------------------------
      LOOP:  cpu time   15.19: real time   19.81

 eigenvalue-minimisations  :  2862
 total energy-change (2. order) : 0.1654853E+02  (-0.5447648E+00)
 number of electron     261.9999925 magnetization 
 augmentation part       80.7234474 magnetization 

 Broyden mixing:
  rms(total) = 0.70451E+01    rms(broyden)= 0.70404E+01
  rms(prec ) = 0.86998E+01
  weight for this iteration     100.00

 eigenvalues of (default mixing * dielectric matrix)
  average eigenvalue GAMMA=   0.3395
  2.0190  0.7106  0.2969  0.2969  0.1883  0.1883  0.0880  0.0830  0.0461  0.0461
  0.0594  0.0515

 Free energy of the ion-electron system (eV)
  ---------------------------------------------------
  alpha Z        PSCENC =       943.57652748
  Ewald energy   TEWEN  =    -15991.18747535
  -Hartree energ DENC   =     -6830.36099810
  -exchange      EXHF   =         0.00000000
  -V(xc)+E(xc)   XCENC  =       917.09825202
  PAW double counting   =     22308.14736416   -22522.76962667
  entropy T*S    EENTRO =         0.07244100
  eigenvalues    EBANDS =     -1541.55306589
  atomic energy  EATOM  =     22504.09828397
  ---------------------------------------------------
  free energy    TOTEN  =      -212.87829739 eV

  energy without entropy =     -212.95073838  energy(sigma->0) =     -212.90244439


--------------------------------------------------------------------------------------------------------




----------------------------------------- Iteration    1(  25)  ---------------------------------------


    POTLOK:  cpu time    0.17: real time    0.35
    SETDIJ:  cpu time    0.04: real time    0.08
    EDDIAG:  cpu time    2.50: real time    3.94
  RMM-DIIS:  cpu time   10.75: real time   18.05
    ORTHCH:  cpu time    0.60: real time    1.20
       DOS:  cpu time    0.00: real time    0.01
    CHARGE:  cpu time    0.98: real time    1.70
    MIXING:  cpu time    0.01: real time    0.02
    --------------------------------------------
      LOOP:  cpu time   15.06: real time   25.36

 eigenvalue-minimisations  :  2745
 total energy-change (2. order) : 0.3840949E+01  (-0.4145484E+00)
 number of electron     261.9999850 magnetization 
 augmentation part       80.8052823 magnetization 

 Broyden mixing:
  rms(total) = 0.76681E+01    rms(broyden)= 0.76657E+01
  rms(prec ) = 0.88990E+01
  weight for this iteration     100.00

 eigenvalues of (default mixing * dielectric matrix)
  average eigenvalue GAMMA=   0.3358
  2.1936  0.6707  0.3450  0.3450  0.1854  0.1854  0.1104  0.0801  0.0607  0.0532
  0.0461  0.0461  0.0433

 Free energy of the ion-electron system (eV)
  ---------------------------------------------------
  alpha Z        PSCENC =       943.57652748
  Ewald energy   TEWEN  =    -15991.18747535
  -Hartree energ DENC   =     -6832.62529227
  -exchange      EXHF   =         0.00000000
  -V(xc)+E(xc)   XCENC  =       917.42463921
  PAW double counting   =     22474.98252196   -22692.96637124
  entropy T*S    EENTRO =        -0.03018523
  eigenvalues    EBANDS =     -1532.30999652
  atomic energy  EATOM  =     22504.09828397
  ---------------------------------------------------
  free energy    TOTEN  =      -209.03734799 eV

  energy without entropy =     -209.00716275  energy(sigma->0) =     -209.02728624


--------------------------------------------------------------------------------------------------------




----------------------------------------- Iteration    1(  26)  ---------------------------------------


    POTLOK:  cpu time    0.17: real time    0.35
    SETDIJ:  cpu time    0.04: real time    0.08
    EDDIAG:  cpu time    2.46: real time    4.19
  RMM-DIIS:  cpu time   10.16: real time   16.73
    ORTHCH:  cpu time    0.60: real time    0.96
       DOS:  cpu time    0.00: real time    0.00
    CHARGE:  cpu time    0.98: real time    1.70
    MIXING:  cpu time    0.01: real time    0.01
    --------------------------------------------
      LOOP:  cpu time   14.44: real time   24.03

 eigenvalue-minimisations  :  2778
 total energy-change (2. order) : 0.9212757E+01  (-0.2601747E+00)
 number of electron     261.9999873 magnetization 
 augmentation part       80.8094311 magnetization 

 Broyden mixing:
  rms(total) = 0.41999E+01    rms(broyden)= 0.41959E+01
  rms(prec ) = 0.50934E+01
  weight for this iteration     100.00

 eigenvalues of (default mixing * dielectric matrix)
  average eigenvalue GAMMA=   0.3199
  2.0865  0.6612  0.3792  0.3792  0.1852  0.1852  0.1959  0.0961  0.0726  0.0571
  0.0454  0.0454  0.0449  0.0449

 Free energy of the ion-electron system (eV)
  ---------------------------------------------------
  alpha Z        PSCENC =       943.57652748
  Ewald energy   TEWEN  =    -15991.18747535
  -Hartree energ DENC   =     -6833.05800880
  -exchange      EXHF   =         0.00000000
  -V(xc)+E(xc)   XCENC  =       917.62690562
  PAW double counting   =     22569.85934705   -22787.19060661
  entropy T*S    EENTRO =         0.01706164
  eigenvalues    EBANDS =     -1523.56662557
  atomic energy  EATOM  =     22504.09828397
  ---------------------------------------------------
  free energy    TOTEN  =      -199.82459058 eV

  energy without entropy =     -199.84165222  energy(sigma->0) =     -199.83027779


--------------------------------------------------------------------------------------------------------




----------------------------------------- Iteration    1(  27)  ---------------------------------------


    POTLOK:  cpu time    0.17: real time    0.24
    SETDIJ:  cpu time    0.04: real time    0.08
    EDDIAG:  cpu time    2.52: real time    4.30
  RMM-DIIS:  cpu time   12.17: real time   15.62
    ORTHCH:  cpu time    0.63: real time    1.09
       DOS:  cpu time    0.00: real time    0.01
    CHARGE:  cpu time    0.99: real time    1.76
    MIXING:  cpu time    0.01: real time    0.04
    --------------------------------------------
      LOOP:  cpu time   16.55: real time   23.14

 eigenvalue-minimisations  :  2885
 total energy-change (2. order) : 0.3875853E+00  (-0.9513659E-01)
 number of electron     261.9999870 magnetization 
 augmentation part       80.7712521 magnetization 

 Broyden mixing:
  rms(total) = 0.48409E+01    rms(broyden)= 0.48385E+01
  rms(prec ) = 0.58643E+01
  weight for this iteration     100.00

 eigenvalues of (default mixing * dielectric matrix)
  average eigenvalue GAMMA=   0.3046
  2.0135  0.6497  0.4200  0.4200  0.2372  0.1864  0.1864  0.0990  0.0700  0.0565
  0.0461  0.0461  0.0513  0.0513  0.0356

 Free energy of the ion-electron system (eV)
  ---------------------------------------------------
  alpha Z        PSCENC =       943.57652748
  Ewald energy   TEWEN  =    -15991.18747535
  -Hartree energ DENC   =     -6828.19857752
  -exchange      EXHF   =         0.00000000
  -V(xc)+E(xc)   XCENC  =       917.15819676
  PAW double counting   =     22517.24817446   -22736.18051749
  entropy T*S    EENTRO =         0.01136281
  eigenvalues    EBANDS =     -1525.96298035
  atomic energy  EATOM  =     22504.09828397
  ---------------------------------------------------
  free energy    TOTEN  =      -199.43700525 eV

  energy without entropy =     -199.44836806  energy(sigma->0) =     -199.44079285


--------------------------------------------------------------------------------------------------------




----------------------------------------- Iteration    1(  28)  ---------------------------------------


    POTLOK:  cpu time    0.18: real time    0.37
    SETDIJ:  cpu time    0.04: real time    0.08
    EDDIAG:  cpu time    2.63: real time    4.94
  RMM-DIIS:  cpu time   11.92: real time   20.69
    ORTHCH:  cpu time    0.62: real time    0.96
       DOS:  cpu time    0.00: real time    0.00
    CHARGE:  cpu time    1.00: real time    1.45
    MIXING:  cpu time    0.02: real time    0.04
    --------------------------------------------
      LOOP:  cpu time   16.41: real time   28.53

 eigenvalue-minimisations  :  2821
 total energy-change (2. order) : 0.3024536E+01  (-0.9750442E-01)
 number of electron     261.9999910 magnetization 
[...]
     63      -4.2553      2.00000
     64      -4.2551      2.00000
     65      -4.0920      2.00000
     66      -4.0918      2.00000
     67      -3.7422      2.00000
     68      -3.7422      2.00000
     69      -3.4655      2.00000
     70      -3.4653      2.00000
     71      -3.4134      2.00000
     72      -3.4127      2.00000
     73      -3.3434      2.00000
     74      -3.3426      2.00000
     75      -3.3243      2.00000
     76      -3.3242      2.00000
     77      -3.2869      2.00000
     78      -3.2866      2.00000
     79      -3.2147      2.00000
     80      -3.2146      2.00000
     81      -3.1545      2.00000
     82      -3.1537      2.00000
     83      -3.1394      2.00000
     84      -3.1386      2.00000
     85      -3.0748      2.00000
     86      -3.0746      2.00000
     87      -3.0023      2.00000
     88      -3.0023      2.00000
     89      -2.7269      2.00000
     90      -2.7265      2.00000
     91      -2.6022      2.00000
     92      -2.6021      2.00000
     93      -2.3976      2.00000
     94      -2.3975      2.00000
     95      -1.5755      2.00000
     96      -1.5751      2.00000
     97       0.8722      2.00000
     98       0.8734      2.00000
     99       0.9378      2.00003
    100       0.9386      2.00003
    101       0.9930      2.00016
    102       0.9933      2.00016
    103       1.0280      2.00041
    104       1.0287      2.00042
    105       1.0522      2.00077
    106       1.0529      2.00078
    107       1.1530      2.00712
    108       1.1534      2.00717
    109       1.1682      2.00945
    110       1.1686      2.00952
    111       1.3477      2.07063
    112       1.3485      2.07070
    113       1.3864      2.06087
    114       1.3865      2.06079
    115       1.4089      2.03824
    116       1.4094      2.03754
    117       1.4128      2.03261
    118       1.4140      2.03072
    119       1.4157      2.02804
    120       1.4173      2.02543
    121       1.4182      2.02397
    122       1.4194      2.02188
    123       1.4232      2.01489
    124       1.4236      2.01415
    125       1.4790      1.83959
    126       1.4792      1.83832
    127       1.5038      1.71249
    128       1.5040      1.71123
    129       1.5410      1.46788
    130       1.5413      1.46582
    131       1.5779      1.17619
    132       1.5785      1.17110
    133       1.6138      0.87424
    134       1.6147      0.86628
    135       1.6148      0.86527
    136       1.6151      0.86309
    137       1.6222      0.80428
    138       1.6225      0.80130
    139       1.7594      0.01845
    140       1.7611      0.01431
    141       1.8082     -0.05864
    142       1.8099     -0.05990
    143       1.8116     -0.06107
    144       1.8126     -0.06176
    145       2.4163     -0.00000
    146       2.4166     -0.00000
    147       2.4620     -0.00000
    148       2.4623     -0.00000
    149       2.6888     -0.00000
    150       2.6908     -0.00000
    151       2.7067     -0.00000
    152       2.7091     -0.00000
    153       2.7116     -0.00000
    154       2.7119     -0.00000
    155       2.7498     -0.00000
    156       2.7505     -0.00000
    157       9.1004      0.00000


--------------------------------------------------------------------------------------------------------


 soft charge-density along one line, spin component           1
         0         1         2         3         4         5         6         7         8         9
 total charge-density along one line
 
 pseudopotential strength for first ion, spin component:           1
 -7.698   0.000   0.000  -0.004   0.000  -8.176   0.000   0.000
  0.000  -7.519  -0.002   0.000   0.003   0.000  -8.003  -0.002
  0.000  -0.002  -7.716   0.000   0.008   0.000  -0.002  -8.194
 -0.004   0.000   0.000  -7.486   0.000  -0.004   0.000   0.000
  0.000   0.003   0.008   0.000  -7.470   0.000   0.003   0.008
 -8.176   0.000   0.000  -0.004   0.000  -8.614   0.000   0.000
  0.000  -8.003  -0.002   0.000   0.003   0.000  -8.447  -0.002
  0.000  -0.002  -8.194   0.000   0.008   0.000  -0.002  -8.631
 -0.004   0.000   0.000  -7.971   0.000  -0.004   0.000   0.000
  0.000   0.003   0.008   0.000  -7.956   0.000   0.003   0.008
  0.000   0.001   0.005  -0.000  -0.000  -0.000   0.001   0.005
 -0.000   0.002   0.009  -0.000  -0.000  -0.000   0.002   0.009
  0.000  -0.000  -0.000   0.000  -0.001   0.000  -0.000  -0.000
  0.000   0.000  -0.000   0.000   0.000   0.000   0.001  -0.000
  0.000   0.000  -0.000  -0.000   0.000   0.001   0.000  -0.000
  0.000  -0.000  -0.001   0.000  -0.001   0.000  -0.000  -0.001
  0.000   0.001  -0.000   0.000   0.000   0.000   0.001  -0.000
  0.001   0.000  -0.000  -0.000   0.000   0.001   0.000  -0.000
 total augmentation occupancy for first ion, spin component:           1
  2.145  -0.000  -0.000  -0.027  -0.000  -2.209   0.000   0.000   0.024   0.000  -0.000   0.000   0.000   0.000  -0.021   0.000
 -0.000   4.765   0.026   0.000   0.009   0.000  -2.130  -0.024  -0.000  -0.007   0.007   0.001  -0.008  -0.021   0.000   0.000
 -0.000   0.026   2.943  -0.000  -0.075   0.000  -0.021  -3.132   0.000   0.197  -0.398   0.080   0.000   0.002   0.000  -0.000
 -0.027   0.000  -0.000   4.940  -0.000   0.017  -0.000   0.000  -2.150   0.000   0.000  -0.000   0.000  -0.000  -0.001   0.000
 -0.000   0.009  -0.075  -0.000   4.612   0.000  -0.007   0.195   0.000  -1.825  -0.261   0.040  -0.006   0.002  -0.000  -0.000
 -2.209   0.000   0.000   0.017   0.000   2.694  -0.000  -0.000  -0.021  -0.000   0.000  -0.000  -0.000  -0.000   0.022   0.000
  0.000  -2.130  -0.021  -0.000  -0.007  -0.000   1.339   0.020   0.000   0.004  -0.006   0.001   0.006   0.022  -0.000  -0.001
  0.000  -0.024  -3.132   0.000   0.195  -0.000   0.020   3.789  -0.000  -0.257   0.448  -0.095  -0.000  -0.001  -0.000   0.000
  0.024  -0.000   0.000  -2.150   0.000  -0.021   0.000  -0.000   1.350  -0.000   0.000   0.000  -0.000   0.000   0.003  -0.000
  0.000  -0.007   0.197   0.000  -1.825  -0.000   0.004  -0.257  -0.000   1.052   0.233  -0.045   0.004  -0.001   0.000  -0.000
 -0.000   0.007  -0.398   0.000  -0.261   0.000  -0.006   0.448   0.000   0.233   1.387  -0.260   0.010   0.002   0.000  -0.002
  0.000   0.001   0.080  -0.000   0.040  -0.000   0.001  -0.095   0.000  -0.045  -0.260   0.055  -0.002  -0.001  -0.000   0.001
  0.000  -0.008   0.000   0.000  -0.006  -0.000   0.006  -0.000  -0.000   0.004   0.010  -0.002   0.134  -0.000   0.000  -0.021
  0.000  -0.021   0.002  -0.000   0.002  -0.000   0.022  -0.001   0.000  -0.001   0.002  -0.001  -0.000   0.213  -0.000   0.000
 -0.021   0.000   0.000  -0.001  -0.000   0.022  -0.000  -0.000   0.003   0.000   0.000  -0.000   0.000  -0.000   0.166   0.000
  0.000   0.000  -0.000   0.000  -0.000   0.000  -0.001   0.000  -0.000  -0.000  -0.002   0.001  -0.021   0.000   0.000   0.004
  0.000   0.003  -0.000   0.000   0.000  -0.000  -0.004   0.000  -0.000  -0.000  -0.000   0.000   0.000  -0.036  -0.000  -0.000
  0.004   0.000  -0.000   0.000  -0.000  -0.004  -0.000   0.000  -0.001   0.000  -0.000   0.000  -0.000  -0.000  -0.027   0.000


------------------------ aborting loop because EDIFF is reached ----------------------------------------


    CHARGE:  cpu time    0.98: real time    1.71
    FORLOC:  cpu time    0.08: real time    0.16
    FORNL :  cpu time    4.82: real time    8.51
    STRESS:  cpu time   14.57: real time   18.87
    FORCOR:  cpu time    0.26: real time    0.51
    FORHAR:  cpu time    0.11: real time    0.22
    MIXING:  cpu time    0.04: real time    0.09
    OFIELD:  cpu time    0.00: real time    0.00

  FORCE on cell =-STRESS in cart. coord.  units (eV):
  Direction    XX          YY          ZZ          XY          YZ          ZX
  --------------------------------------------------------------------------------------
  Alpha Z   943.57653   943.57653   943.57653
  Ewald   -4454.50198 -5697.31548 -5839.43667     0.00000     0.00000     0.00000
  Hartree  2776.32296  2056.48784  1981.52887    -0.00001     0.01373    -0.00009
  E(xc)   -1393.21473 -1394.60626 -1395.40005     0.00001    -0.00047     0.00004
  Local   -2144.36740  -220.56947   -32.16868    -0.00000    -0.01206     0.00043
  n-local -1297.94700 -1297.88908 -1298.43802     0.00001     0.00095     0.00004
  augment   855.65874   858.94877   868.59182     0.00002     0.00089    -0.00009
  Kinetic  4633.15518  4681.99632  4694.03401     0.00000     0.00436    -0.00020
  Fock        0.00000     0.00000     0.00000     0.00000     0.00000     0.00000
  -------------------------------------------------------------------------------------
  Total     -81.31771   -69.37082   -77.71218     0.00004     0.00740     0.00012
  in kB    -286.97981  -244.81784  -274.25547     0.00013     0.02612     0.00041
  external pressure =     -268.68 kB  Pullay stress =        0.00 kB


 VOLUME and BASIS-vectors are now :
 -----------------------------------------------------------------------------
  energy-cutoff  :      400.00
  volume of cell :      453.99
      direct lattice vectors                 reciprocal lattice vectors
     3.252628000  0.000000000  0.000000000     0.307443704  0.000000000  0.000000000
     0.000000000 20.549384000  0.000000000     0.000000000  0.048663259  0.000000000
     0.000000000  0.000000000  6.792211000     0.000000000  0.000000000  0.147227464

  length of vectors
     3.252628000 20.549384000  6.792211000     0.307443704  0.048663259  0.147227464


 FORCES acting on ions
    electron-ion (+dipol)            ewald-force                    non-local-force                 convergence-correction
 -----------------------------------------------------------------------------------------------
   -.177E-04 0.209E+02 0.440E+01   -.153E-13 -.208E+02 -.436E+01   0.126E-04 -.290E-01 -.723E-02   0.614E-05 -.540E-01 -.141E-02
   0.143E-05 -.209E+02 0.440E+01   -.158E-13 0.208E+02 -.436E+01   -.180E-04 0.285E-01 -.745E-02   0.168E-04 0.833E-01 -.132E-02
   0.442E-05 0.209E+02 0.440E+01   -.173E-13 -.208E+02 -.436E+01   0.273E-06 -.283E-01 -.710E-02   -.500E-05 -.134E+00 -.574E-02
   0.278E-04 -.207E+02 0.440E+01   -.177E-13 0.208E+02 -.436E+01   -.349E-04 0.277E-01 -.734E-02   0.795E-05 -.853E-01 -.467E-02
   -.871E-05 0.165E+02 -.501E+01   0.471E-13 -.167E+02 0.492E+01   0.419E-04 0.481E+00 0.139E+00   -.286E-04 -.519E-01 -.503E-03
   0.474E-05 -.164E+02 -.501E+01   0.422E-13 0.167E+02 0.492E+01   -.304E-05 -.481E+00 0.139E+00   -.170E-05 -.524E-01 0.126E-02
   0.243E-05 0.166E+02 -.501E+01   0.507E-13 -.167E+02 0.492E+01   -.367E-05 0.483E+00 0.138E+00   -.170E-07 -.139E+00 0.381E-02
   0.126E-04 -.163E+02 -.502E+01   0.459E-13 0.167E+02 0.492E+01   -.152E-04 -.482E+00 0.138E+00   0.170E-05 -.149E+00 0.629E-02
   0.123E-04 -.220E+00 -.829E+00   -.341E-14 -.941E-13 0.356E+01   -.383E-04 -.674E-03 -.148E+01   0.344E-04 0.221E+00 0.295E-01
   -.292E-05 0.310E-01 -.833E+00   0.613E-13 0.122E-12 0.356E+01   -.723E-05 -.583E-04 -.148E+01   0.346E-05 -.311E-01 0.326E-01
   -.282E-05 -.291E+00 -.466E+01   0.129E-13 -.798E-13 0.120E+01   0.175E-04 0.461E-03 0.322E+01   -.114E-04 0.290E+00 0.433E-01
   0.839E-05 -.107E+00 -.460E+01   0.129E-13 0.798E-13 0.120E+01   0.105E-04 0.103E-02 0.322E+01   -.120E-04 0.105E+00 -.126E-01
   -.224E-04 -.203E+00 0.588E+02   0.688E-14 -.492E-13 -.628E+02   0.998E-04 -.480E-03 0.265E+01   -.719E-04 0.202E+00 0.326E+00
   -.798E-04 -.517E-01 0.590E+02   0.112E-13 0.918E-13 -.628E+02   0.450E-04 0.750E-03 0.265E+01   0.353E-04 0.504E-01 0.143E+00
   0.261E-04 0.154E+02 -.208E+02   -.171E-13 -.142E+02 0.207E+02   0.314E-04 -.125E+01 -.663E+00   -.482E-04 -.646E-01 0.179E+00
   0.894E-04 -.153E+02 -.205E+02   -.135E-13 0.142E+02 0.207E+02   0.327E-04 0.125E+01 -.662E+00   -.119E-03 -.439E-02 -.169E+00
   -.138E-04 0.154E+02 -.208E+02   -.177E-13 -.142E+02 0.207E+02   -.281E-04 -.125E+01 -.661E+00   0.390E-04 -.121E+00 0.190E+00
   0.708E-04 -.152E+02 -.202E+02   -.140E-13 0.142E+02 0.207E+02   0.198E-04 0.125E+01 -.659E+00   -.985E-04 -.115E+00 -.423E+00
   -.328E-04 0.117E+02 0.200E+02   -.657E-14 -.106E+02 -.203E+02   0.485E-04 -.119E+01 0.923E+00   -.173E-05 -.599E-01 -.177E+00
   -.744E-04 -.117E+02 0.197E+02   -.417E-14 0.106E+02 -.203E+02   -.358E-04 0.119E+01 0.922E+00   0.103E-03 -.661E-02 0.171E+00
   0.534E-05 0.118E+02 0.201E+02   -.735E-14 -.106E+02 -.203E+02   0.249E-04 -.119E+01 0.921E+00   -.270E-04 -.113E+00 -.188E+00
   -.841E-05 -.115E+02 0.194E+02   -.506E-14 0.106E+02 -.203E+02   -.375E-05 0.119E+01 0.920E+00   0.184E-04 -.124E+00 0.427E+00
   0.116E-03 0.937E+01 0.507E+01   -.140E-13 -.114E+02 -.707E+01   0.252E-04 0.986E+00 0.217E+01   -.126E-03 0.508E+00 -.106E-01
   -.528E-04 -.971E+01 0.507E+01   -.160E-13 0.114E+02 -.707E+01   -.894E-04 -.990E+00 0.217E+01   0.109E-03 -.162E+00 -.841E-02
   -.123E-04 0.100E+02 0.504E+01   -.490E-13 -.114E+02 -.707E+01   0.465E-05 0.987E+00 0.217E+01   0.937E-05 -.163E+00 0.131E-01
   -.101E-04 -.985E+01 0.504E+01   -.509E-13 0.114E+02 -.707E+01   0.249E-04 -.987E+00 0.217E+01   -.388E-05 -.270E-01 0.192E-01
   -.270E-04 0.263E+02 -.735E+01   0.222E-13 -.271E+02 0.104E+02   -.195E-04 0.156E+01 -.315E+01   0.496E-04 0.205E+00 -.172E-01
   0.316E-04 -.268E+02 -.736E+01   0.274E-13 0.271E+02 0.104E+02   -.361E-05 -.155E+01 -.315E+01   -.246E-04 0.337E+00 -.108E-01
   -.376E-04 0.267E+02 -.734E+01   0.182E-13 -.271E+02 0.104E+02   -.204E-04 0.156E+01 -.315E+01   0.546E-04 -.183E+00 -.301E-01
   -.872E-04 -.270E+02 -.735E+01   0.234E-13 0.271E+02 0.104E+02   -.176E-04 -.155E+01 -.314E+01   0.998E-04 0.499E+00 -.194E-01
   -.739E-05 -.169E+02 0.252E+00   -.360E-13 0.181E+02 -.230E+00   0.909E-04 -.142E+01 -.518E-01   -.696E-04 -.314E+00 -.241E-03
   0.210E-04 0.173E+02 0.251E+00   -.344E-13 -.181E+02 -.230E+00   -.224E-09 0.142E+01 -.516E-01   -.271E-04 -.481E-01 0.101E-02
   0.231E-04 -.172E+02 0.254E+00   -.391E-13 0.181E+02 -.230E+00   0.308E-04 -.142E+01 -.526E-01   -.505E-04 -.769E-01 -.131E-02
   0.764E-04 0.178E+02 0.252E+00   -.379E-13 -.181E+02 -.230E+00   -.539E-04 0.142E+01 -.530E-01   -.317E-04 -.584E+00 0.622E-03
   -.137E-04 -.233E+00 -.483E+02   0.195E-13 -.645E-13 0.498E+02   -.302E-04 -.145E-02 -.129E+01   0.430E-04 0.234E+00 -.361E+00
   0.258E-04 -.551E-01 -.485E+02   0.195E-13 0.150E-12 0.498E+02   -.123E-04 -.561E-03 -.128E+01   -.154E-04 0.557E-01 -.162E+00
 -----------------------------------------------------------------------------------------------
   0.485E-04 0.715E-01 -.363E+01   -.111E-13 0.146E-12 -.242E-12   0.126E-03 0.997E-03 0.364E+01   -.142E-03 -.724E-01 -.198E-01
 
 
 POSITION                                       TOTAL-FORCE (eV/Angst)
 -----------------------------------------------------------------------------------
      0.00000      3.42597      3.40555         0.000000     -0.076715      0.026794
      0.00000     17.12341      3.40555        -0.000001      0.076876      0.026529
      0.00000     13.70066      0.00945        -0.000001     -0.076739      0.026952
      0.00000      6.84872      0.00945         0.000000      0.076183      0.026760
      1.62631      3.41163      0.00003         0.000004      0.254592      0.050863
      1.62631     17.13775      0.00003        -0.000001     -0.253904      0.050819
      1.62631     13.68632      3.39613        -0.000002      0.254850      0.050872
      1.62631      6.86306      3.39613        -0.000002     -0.254180      0.050802
      0.00000      0.00000      0.08261         0.000007      0.000182      1.276895
      0.00000     10.27469      3.47871        -0.000008     -0.000092      1.281230
      1.62631      0.00000      3.20864         0.000002     -0.000072     -0.190673
      1.62631     10.27469      6.60475         0.000006     -0.000563     -0.193390
      0.00000      0.00000      2.13521         0.000005     -0.000640     -0.991322
      0.00000     10.27469      5.53132        -0.000000     -0.000566     -0.991857
      0.00000      3.45577      1.38085         0.000008     -0.134493     -0.550542
      0.00000     17.09361      1.38085         0.000002      0.134943     -0.549967
      0.00000     13.73046      4.77696        -0.000004     -0.134886     -0.549703
      0.00000      6.81892      4.77696        -0.000009      0.135133     -0.548676
      0.00000      3.46015      5.42933         0.000013     -0.118305      0.522018
      0.00000     17.08924      5.42933        -0.000008      0.117760      0.521452
      0.00000     13.73484      2.03322         0.000002     -0.118271      0.521338
      0.00000      6.81455      2.03322         0.000005      0.118718      0.520275
      1.62631      1.40500      6.76733         0.000015     -0.536701      0.153165
      1.62631     19.14438      6.76733        -0.000034      0.535893      0.152624
      1.62631     11.67969      3.37123         0.000001     -0.534473      0.152675
      1.62631      8.86969      3.37123         0.000010      0.534760      0.152683
      1.62631      2.01762      3.43468         0.000002      0.912331     -0.129456
      1.62631     18.53176      3.43468         0.000002     -0.912430     -0.130147
      1.62631     12.29231      0.03857        -0.000004      0.914224     -0.128623
      1.62631      8.25707      0.03857        -0.000006     -0.913085     -0.129086
      1.62631      4.80979      3.40646         0.000013     -0.524014     -0.029124
      1.62631     15.73960      3.40646        -0.000007      0.523804     -0.028982
      1.62631     15.08448      0.01036         0.000002     -0.525814     -0.029298
      1.62631      5.46490      0.01036        -0.000010      0.525812     -0.029406
      0.00000      0.00000      4.71883        -0.000002     -0.000154     -0.182156
      0.00000     10.27469      1.32272        -0.000003      0.000036     -0.182340
 -----------------------------------------------------------------------------------
    total drift:                                0.000033      0.000047     -0.012466


--------------------------------------------------------------------------------------------------------



  FREE ENERGIE OF THE ION-ELECTRON SYSTEM (eV)
  ---------------------------------------------------
  free  energy   TOTEN  =      -194.57387739 eV

  energy  without entropy=     -194.60261638  energy(sigma->0) =     -194.58345705
 


--------------------------------------------------------------------------------------------------------


    POTLOK:  cpu time    0.21: real time    0.40


--------------------------------------------------------------------------------------------------------


 Quasi-Newton relaxation of ions (Broydens 2nd method)
  g(Force)  = 0.668E+00   g(Stress)= 0.000E+00

 Reset! Starting new Quasi-Newton update for ions 


--------------------------------------------------------------------------------------------------------


     LOOP+:  cpu time  767.18: real time 1190.15
    4ORBIT:  cpu time    0.00: real time    0.00

 total amount of memory used by VASP on root node   265373. kBytes
========================================================================

   base      :      30000. kBytes
   nonlr-proj:       7332. kBytes
   fftplans  :      17416. kBytes
   grid      :      35030. kBytes
   one-center:        559. kBytes
   wavefun   :     175036. kBytes
 
  
  
 General timing and accounting informations for this job:
 ========================================================
  
                  Total CPU time used (sec):      770.842
                            User time (sec):      770.418
                          System time (sec):        0.424
                         Elapsed time (sec):     1196.671
  
                   Maximum memory used (kb):      309496.
                   Average memory used (kb):           0.
  
                          Minor page faults:       151377
                          Major page faults:            1
                 Voluntary context switches:          564
