 running on    1 total cores
 distrk:  each k-point on    1 cores,    1 groups
 distr:  one band on    1 cores,    1 groups
 using from now: INCAR     
 vasp.5.3.5 31Mar14 (build Aug 29 2014 19:41:47) complex                        
  
 POSCAR found type information on POSCAR  Fe O  F 
 POSCAR found :  3 types and      36 ions
 scaLAPACK will be used
 LDA part: xc-table for Pade appr. of Perdew
 POSCAR, INCAR and KPOINTS ok, starting setup
 WARNING: small aliasing (wrap around) errors must be expected
 FFT: planning ...
 WAVECAR not read
 entering main loop
       N       E                     dE             d eps       ncg     rms          rms(c)
RMM:   1     0.321993049221E+04    0.32199E+04   -0.98229E+04  1256   0.143E+03
RMM:   2     0.101204889361E+04   -0.22079E+04   -0.24870E+04  1256   0.412E+02
RMM:   3     0.343565744755E+03   -0.66848E+03   -0.66167E+03  1256   0.263E+02
RMM:   4     0.676696439893E+02   -0.27590E+03   -0.23645E+03  1256   0.259E+02
RMM:   5    -0.898303122781E+02   -0.15750E+03   -0.12353E+03  1256   0.126E+02
RMM:   6    -0.160992457461E+03   -0.71162E+02   -0.53770E+02  1256   0.114E+02
RMM:   7    -0.197577538360E+03   -0.36585E+02   -0.29271E+02  1256   0.554E+01
RMM:   8    -0.212049632952E+03   -0.14472E+02   -0.11636E+02  1256   0.540E+01
RMM:   9    -0.226259353322E+03   -0.14210E+02   -0.12917E+02  4002   0.240E+01
RMM:  10    -0.226570849510E+03   -0.31150E+00   -0.62449E+00  3973   0.390E+00
RMM:  11    -0.226811683218E+03   -0.24083E+00   -0.20492E+00  3637   0.118E+00
RMM:  12    -0.226902439697E+03   -0.90756E-01   -0.84482E-01  3029   0.510E-01    0.449E+01
RMM:  13    -0.211103236598E+03    0.15799E+02   -0.24260E+02  2964   0.502E+01    0.636E+01
RMM:  14    -0.257988326920E+03   -0.46885E+02   -0.65932E+01  2746   0.275E+01    0.115E+02
RMM:  15    -0.250789622209E+03    0.71987E+01   -0.16541E+01  2785   0.135E+01    0.117E+02
RMM:  16    -0.218441145394E+03    0.32348E+02   -0.63276E+00  2722   0.859E+00    0.731E+01
RMM:  17    -0.248655130383E+03   -0.30214E+02   -0.16033E+01  2812   0.111E+01    0.119E+02
RMM:  18    -0.252610881968E+03   -0.39558E+01   -0.17044E+01  2946   0.116E+01    0.105E+02
RMM:  19    -0.228734292836E+03    0.23877E+02   -0.67325E+00  2869   0.817E+00    0.809E+01
RMM:  20    -0.231168028073E+03   -0.24337E+01   -0.75790E+00  2791   0.783E+00    0.969E+01
RMM:  21    -0.243245246985E+03   -0.12077E+02   -0.75984E+00  2957   0.774E+00    0.101E+02
RMM:  22    -0.221230161212E+03    0.22015E+02   -0.85435E+00  2840   0.805E+00    0.763E+01
RMM:  23    -0.229426830815E+03   -0.81967E+01   -0.10002E+01  2819   0.900E+00    0.103E+02
RMM:  24    -0.212878297385E+03    0.16549E+02   -0.54476E+00  2862   0.707E+00    0.705E+01
RMM:  25    -0.209037347988E+03    0.38409E+01   -0.41455E+00  2745   0.593E+00    0.767E+01
RMM:  26    -0.199824590577E+03    0.92128E+01   -0.26017E+00  2778   0.522E+00    0.420E+01
RMM:  27    -0.199437005248E+03    0.38759E+00   -0.95137E-01  2885   0.328E+00    0.484E+01
RMM:  28    -0.196412469678E+03    0.30245E+01   -0.97504E-01  2821   0.333E+00    0.248E+01
RMM:  29    -0.195799048635E+03    0.61342E+00   -0.30410E-01  2757   0.200E+00    0.280E+01
RMM:  30    -0.195853587039E+03   -0.54538E-01   -0.21913E-01  2940   0.157E+00    0.259E+01
RMM:  31    -0.195414531861E+03    0.43906E+00   -0.18269E-01  2657   0.138E+00    0.208E+01
RMM:  32    -0.194958657578E+03    0.45587E+00   -0.49940E-02  2989   0.774E-01    0.164E+01
RMM:  33    -0.194782140273E+03    0.17652E+00   -0.47143E-02  3081   0.660E-01    0.146E+01
RMM:  34    -0.194752204431E+03    0.29936E-01   -0.52886E-02  2984   0.774E-01    0.119E+01
RMM:  35    -0.194689479540E+03    0.62725E-01   -0.13730E-01  3136   0.103E+00    0.104E+01
RMM:  36    -0.194646359375E+03    0.43120E-01   -0.29852E-02  2941   0.533E-01    0.899E+00
RMM:  37    -0.194627173654E+03    0.19186E-01   -0.23640E-02  2821   0.504E-01    0.830E+00
RMM:  38    -0.194604506172E+03    0.22667E-01   -0.10946E-02  2746   0.377E-01    0.714E+00
RMM:  39    -0.194587254465E+03    0.17252E-01   -0.49452E-03  2674   0.266E-01    0.577E+00
RMM:  40    -0.194593699638E+03   -0.64452E-02   -0.34505E-03  2613   0.213E-01    0.558E+00
RMM:  41    -0.194578065852E+03    0.15634E-01   -0.54316E-03  2817   0.219E-01    0.401E+00
RMM:  42    -0.194579414618E+03   -0.13488E-02   -0.15201E-03  2378   0.134E-01    0.386E+00
RMM:  43    -0.194573324923E+03    0.60897E-02   -0.14128E-03  2372   0.113E-01    0.295E+00
RMM:  44    -0.194574929620E+03   -0.16047E-02   -0.71749E-04  2094   0.923E-02    0.284E+00
RMM:  45    -0.194571272490E+03    0.36571E-02   -0.16809E-03  2464   0.140E-01    0.156E+00
RMM:  46    -0.194571703844E+03   -0.43135E-03   -0.26488E-04  1564   0.702E-02    0.159E+00
RMM:  47    -0.194571296658E+03    0.40719E-03   -0.45198E-04  1781   0.712E-02    0.116E+00
RMM:  48    -0.194571826639E+03   -0.52998E-03   -0.19325E-04  1465   0.529E-02    0.999E-01
RMM:  49    -0.194573067004E+03   -0.12404E-02   -0.39756E-04  1847   0.699E-02    0.705E-01
RMM:  50    -0.194573237755E+03   -0.17075E-03   -0.87727E-05  1312   0.434E-02    0.586E-01
RMM:  51    -0.194573477260E+03   -0.23951E-03   -0.65277E-05  1295   0.325E-02    0.527E-01
RMM:  52    -0.194573671916E+03   -0.19466E-03   -0.47668E-05  1293   0.272E-02    0.400E-01
RMM:  53    -0.194573873318E+03   -0.20140E-03   -0.67517E-05  1302   0.307E-02    0.237E-01
RMM:  54    -0.194573877385E+03   -0.40666E-05   -0.18394E-05  1265   0.203E-02
   1 F= -.19457388E+03 E0= -.19458346E+03  d E =-.194574E+03
 BRION: g(F)=  0.668E+00 g(S)=  0.000E+00
