<?xml version="1.0" encoding="ISO-8859-1"?>
<modeling>
 <generator>
  <i name="program" type="string">vasp </i>
  <i name="version" type="string">5.3.5  </i>
  <i name="subversion" type="string">31Mar14 (build Aug 29 2014 19:41:47) complex                          parallel </i>
  <i name="platform" type="string">LinuxIFC </i>
  <i name="date" type="string">2019 01 22 </i>
  <i name="time" type="string">16:52:54 </i>
 </generator>
 <incar>
  <i type="string" name="SYSTEM"> tssm</i>
  <i type="int" name="ISTART">     0</i>
  <i type="string" name="PREC">normal</i>
  <i type="string" name="ALGO"> VeryFast</i>
  <i type="int" name="ISPIN">     1</i>
  <i name="AMIN">      0.01000000</i>
  <i type="int" name="ICHARG">     2</i>
  <i type="int" name="NELM">   300</i>
  <i type="int" name="IBRION">     1</i>
  <i name="EDIFF">      0.00010000</i>
  <i name="EDIFFG">      0.00100000</i>
  <i type="int" name="NSW">     1</i>
  <i type="int" name="ISIF">     2</i>
  <i type="int" name="ISYM">     0</i>
  <i name="ENCUT">    400.00000000</i>
  <i type="string" name="LREAL"> Auto</i>
  <i type="int" name="ISMEAR">     1</i>
  <i name="SIGMA">      0.20000000</i>
  <i type="logical" name="LWAVE"> F  </i>
  <i type="int" name="NELM">   300</i>
 </incar>
 <kpoints>
  <generation param="Gamma">
   <v type="int" name="divisions">       2        2        2 </v>
   <v name="usershift">      0.00000000       0.00000000       0.00000000 </v>
   <v name="genvec1">      0.50000000       0.00000000       0.00000000 </v>
   <v name="genvec2">      0.00000000       0.50000000       0.00000000 </v>
   <v name="genvec3">      0.00000000       0.00000000       0.50000000 </v>
   <v name="shift">      0.00000000       0.00000000       0.00000000 </v>
  </generation>
  <varray name="kpointlist" >
   <v>       0.00000000       0.00000000       0.00000000 </v>
   <v>       0.50000000       0.00000000       0.00000000 </v>
   <v>       0.00000000       0.50000000       0.00000000 </v>
   <v>       0.50000000       0.50000000       0.00000000 </v>
   <v>       0.00000000       0.00000000       0.50000000 </v>
   <v>       0.50000000       0.00000000       0.50000000 </v>
   <v>       0.00000000       0.50000000       0.50000000 </v>
   <v>       0.50000000       0.50000000       0.50000000 </v>
  </varray>
  <varray name="weights" >
   <v>       0.12500000 </v>
   <v>       0.12500000 </v>
   <v>       0.12500000 </v>
   <v>       0.12500000 </v>
   <v>       0.12500000 </v>
   <v>       0.12500000 </v>
   <v>       0.12500000 </v>
   <v>       0.12500000 </v>
  </varray>
 </kpoints>
 <parameters>
  <separator name="general" >
   <i type="string" name="SYSTEM">tssm</i>
   <i type="logical" name="LCOMPAT"> F  </i>
  </separator>
  <separator name="electronic" >
   <i type="string" name="PREC">normal</i>
   <i name="ENMAX">    400.00000000</i>
   <i name="ENAUG">    613.61400000</i>
   <i name="EDIFF">      0.00010000</i>
   <i type="int" name="IALGO">    48</i>
   <i type="int" name="IWAVPR">    11</i>
   <i type="int" name="NBANDS">   157</i>
   <i name="NELECT">    262.00000000</i>
   <i type="int" name="TURBO">     0</i>
   <i type="int" name="IRESTART">     0</i>
   <i type="int" name="NREBOOT">     0</i>
   <i type="int" name="NMIN">     0</i>
   <i name="EREF">      0.00000000</i>
   <separator name="electronic smearing" >
    <i type="int" name="ISMEAR">     1</i>
    <i name="SIGMA">      0.20000000</i>
    <i name="KSPACING">      0.50000000</i>
    <i type="logical" name="KGAMMA"> T  </i>
   </separator>
   <separator name="electronic projectors" >
    <i type="logical" name="LREAL"> T  </i>
    <v name="ROPT">     -0.00050000     -0.00050000     -0.00050000</v>
    <i type="int" name="LMAXPAW">  -100</i>
    <i type="int" name="LMAXMIX">     2</i>
    <i type="logical" name="NLSPLINE"> F  </i>
   </separator>
   <separator name="electronic startup" >
    <i type="int" name="ISTART">     0</i>
    <i type="int" name="ICHARG">     2</i>
    <i type="int" name="INIWAV">     1</i>
   </separator>
   <separator name="electronic spin" >
    <i type="int" name="ISPIN">     1</i>
    <i type="logical" name="LNONCOLLINEAR"> F  </i>
    <v name="MAGMOM">      1.00000000      1.00000000      1.00000000      1.00000000      1.00000000      1.00000000      1.00000000      1.00000000      1.00000000      1.00000000      1.00000000      1.00000000      1.00000000      1.00000000      1.00000000      1.00000000      1.00000000      1.00000000      1.00000000      1.00000000
      1.00000000      1.00000000      1.00000000      1.00000000      1.00000000      1.00000000      1.00000000      1.00000000      1.00000000      1.00000000      1.00000000      1.00000000      1.00000000      1.00000000      1.00000000      1.00000000</v>
    <i name="NUPDOWN">     -1.00000000</i>
    <i type="logical" name="LSORBIT"> F  </i>
    <v name="SAXIS">      0.00000000      0.00000000      1.00000000</v>
    <i type="logical" name="LSPIRAL"> F  </i>
    <v name="QSPIRAL">      0.00000000      0.00000000      0.00000000</v>
    <i type="logical" name="LZEROZ"> F  </i>
   </separator>
   <separator name="electronic exchange-correlation" >
    <i type="logical" name="LASPH"> F  </i>
    <i type="logical" name="LMETAGGA"> F  </i>
   </separator>
   <separator name="electronic convergence" >
    <i type="int" name="NELM">   300</i>
    <i type="int" name="NELMDL">   -12</i>
    <i type="int" name="NELMIN">     2</i>
    <i name="ENINI">    400.00000000</i>
    <separator name="electronic convergence detail" >
     <i type="logical" name="LDIAG"> T  </i>
     <i type="logical" name="LSUBROT"> F  </i>
     <i name="WEIMIN">      0.00100000</i>
     <i name="EBREAK">      0.00000016</i>
     <i name="DEPER">      0.30000000</i>
     <i type="int" name="NRMM">     4</i>
     <i name="TIME">      0.40000000</i>
    </separator>
   </separator>
   <separator name="electronic mixer" >
    <i name="AMIX">      0.40000000</i>
    <i name="BMIX">      1.00000000</i>
    <i name="AMIN">      0.01000000</i>
    <i name="AMIX_MAG">      1.60000000</i>
    <i name="BMIX_MAG">      1.00000000</i>
    <separator name="electronic mixer details" >
     <i type="int" name="IMIX">     4</i>
     <i type="int" name="MAXMIX">   -45</i>
     <i name="WC">    100.00000000</i>
     <i type="int" name="INIMIX">     1</i>
     <i type="int" name="MIXPRE">     1</i>
     <i type="int" name="MREMOVE">     5</i>
    </separator>
   </separator>
   <separator name="electronic dipolcorrection" >
    <i type="logical" name="LDIPOL"> F  </i>
    <i type="logical" name="LMONO"> F  </i>
    <i type="int" name="IDIPOL">     0</i>
    <i name="EPSILON">      1.00000000</i>
    <v name="DIPOL">   -100.00000000   -100.00000000   -100.00000000</v>
    <i name="EFIELD">      0.00000000</i>
   </separator>
  </separator>
  <separator name="grids" >
   <i type="int" name="NGX">    16</i>
   <i type="int" name="NGY">   108</i>
   <i type="int" name="NGZ">    36</i>
   <i type="int" name="NGXF">    32</i>
   <i type="int" name="NGYF">   216</i>
   <i type="int" name="NGZF">    72</i>
   <i type="logical" name="ADDGRID"> F  </i>
  </separator>
  <separator name="ionic" >
   <i type="int" name="NSW">     1</i>
   <i type="int" name="IBRION">     1</i>
   <i type="int" name="ISIF">     2</i>
   <i name="PSTRESS">      0.00000000</i>
   <i name="EDIFFG">      0.00100000</i>
   <i type="int" name="NFREE">     0</i>
   <i name="POTIM">      0.50000000</i>
   <i name="SMASS">     -3.00000000</i>
   <i name="SCALEE">      1.00000000</i>
  </separator>
  <separator name="ionic md" >
   <i name="TEBEG">      0.00010000</i>
   <i name="TEEND">      0.00010000</i>
   <i type="int" name="NBLOCK">     1</i>
   <i type="int" name="KBLOCK">     1</i>
   <i type="int" name="NPACO">   256</i>
   <i name="APACO">     16.00000000</i>
  </separator>
  <separator name="symmetry" >
   <i type="int" name="ISYM">     0</i>
   <i name="SYMPREC">      0.00001000</i>
  </separator>
  <separator name="dos" >
   <i type="logical" name="LORBIT"> F  </i>
   <v name="RWIGS">     -1.00000000     -1.00000000     -1.00000000</v>
   <i type="int" name="NEDOS">   301</i>
   <i name="EMIN">     10.00000000</i>
   <i name="EMAX">    -10.00000000</i>
   <i name="EFERMI">      0.00000000</i>
  </separator>
  <separator name="writing" >
   <i type="int" name="NWRITE">     2</i>
   <i type="logical" name="LWAVE"> F  </i>
   <i type="logical" name="LCHARG"> T  </i>
   <i type="logical" name="LPARD"> F  </i>
   <i type="logical" name="LVTOT"> F  </i>
   <i type="logical" name="LVHAR"> F  </i>
   <i type="logical" name="LELF"> F  </i>
   <i type="logical" name="LOPTICS"> F  </i>
   <v name="STM">      0.00000000      0.00000000      0.00000000      0.00000000      0.00000000      0.00000000      0.00000000</v>
  </separator>
  <separator name="performance" >
   <i type="int" name="NPAR">     1</i>
   <i type="int" name="NSIM">     4</i>
   <i type="int" name="NBLK">    -1</i>
   <i type="logical" name="LPLANE"> T  </i>
   <i type="logical" name="LSCALAPACK"> T  </i>
   <i type="logical" name="LSCAAWARE"> F  </i>
   <i type="logical" name="LSCALU"> F  </i>
   <i type="logical" name="LASYNC"> F  </i>
   <i type="logical" name="LORBITALREAL"> F  </i>
  </separator>
  <separator name="miscellaneous" >
   <i type="int" name="IDIOT">     3</i>
   <i type="logical" name="LMUSIC"> F  </i>
   <v name="POMASS">     55.84700000     16.00000000     18.99800000</v>
   <v name="DARWINR">      0.00000000      0.00000000      0.00000000</v>
   <v name="DARWINV">      1.00000000      1.00000000      1.00000000</v>
   <i type="logical" name="LCORR"> T  </i>
  </separator>
  <i type="logical" name="GGA_COMPAT"> T  </i>
  <i type="logical" name="LBERRY"> F  </i>
  <i type="int" name="ICORELEVEL">     0</i>
  <i type="logical" name="LDAU"> F  </i>
  <i type="int" name="I_CONSTRAINED_M">     0</i>
  <separator name="electronic exchange-correlation" >
   <i type="string" name="GGA">--</i>
   <i type="int" name="VOSKOWN">     0</i>
   <i type="logical" name="LHFCALC"> F  </i>
   <i type="string" name="PRECFOCK"></i>
   <i type="logical" name="LSYMGRAD"> F  </i>
   <i type="logical" name="LHFONE"> F  </i>
   <i type="logical" name="LRHFCALC"> F  </i>
   <i type="logical" name="LTHOMAS"> F  </i>
   <i type="logical" name="LMODELHF"> F  </i>
   <i name="ENCUT4O">     -1.00000000</i>
   <i type="int" name="EXXOEP">     0</i>
   <i type="int" name="FOURORBIT">     0</i>
   <i name="AEXX">      0.00000000</i>
   <i name="HFALPHA">      0.00000000</i>
   <i name="MCALPHA">      0.00000000</i>
   <i name="ALDAX">      1.00000000</i>
   <i name="AGGAX">      1.00000000</i>
   <i name="ALDAC">      1.00000000</i>
   <i name="AGGAC">      1.00000000</i>
   <i type="int" name="NKREDX">     1</i>
   <i type="int" name="NKREDY">     1</i>
   <i type="int" name="NKREDZ">     1</i>
   <i type="logical" name="SHIFTRED"> F  </i>
   <i type="logical" name="ODDONLY"> F  </i>
   <i type="logical" name="EVENONLY"> F  </i>
   <i type="int" name="LMAXFOCK">     0</i>
   <i type="int" name="NMAXFOCKAE">     0</i>
   <i type="logical" name="LFOCKAEDFT"> F  </i>
   <i name="HFSCREEN">      0.00000000</i>
   <i name="HFSCREENC">      0.00000000</i>
   <i type="int" name="NBANDSGWLOW">     0</i>
  </separator>
  <separator name="vdW DFT" >
   <i type="logical" name="LUSE_VDW"> F  </i>
   <i name="Zab_VDW">     -0.84910000</i>
   <i name="PARAM1">      0.12340000</i>
   <i name="PARAM2">      1.00000000</i>
   <i name="PARAM3">      0.00000000</i>
  </separator>
  <separator name="model GW" >
   <i type="int" name="MODEL_GW">     0</i>
   <i name="MODEL_EPS0">      7.56646665</i>
   <i name="MODEL_ALPHA">      1.00000000</i>
  </separator>
  <separator name="linear response parameters" >
   <i type="logical" name="LEPSILON"> F  </i>
   <i type="logical" name="LRPA"> F  </i>
   <i type="logical" name="LNABLA"> F  </i>
   <i type="logical" name="LVEL"> F  </i>
   <i type="int" name="KINTER">     0</i>
   <i name="CSHIFT">      0.10000000</i>
   <i name="OMEGAMAX">     -1.00000000</i>
   <i name="DEG_THRESHOLD">      0.00200000</i>
  </separator>
  <separator name="orbital magnetization" >
   <i type="logical" name="NUCIND"> F  </i>
   <v name="MAGPOS">      0.00000000      0.00000000      0.00000000</v>
   <i type="logical" name="LNICSALL"> T  </i>
   <i type="logical" name="ORBITALMAG"> F  </i>
   <i type="logical" name="LMAGBLOCH"> F  </i>
   <i type="logical" name="LCHIMAG"> F  </i>
   <i type="logical" name="LGAUGE"> T  </i>
   <i type="int" name="MAGATOM">     0</i>
   <v name="MAGDIPOL">      0.00000000      0.00000000      0.00000000</v>
   <v name="AVECCONST">      0.00000000      0.00000000      0.00000000</v>
  </separator>
  <separator name="response functions" >
   <i type="logical" name="LADDER"> F  </i>
   <i type="logical" name="LFXC"> F  </i>
   <i type="logical" name="LHARTREE"> T  </i>
   <i type="int" name="IBSE">     0</i>
   <i type="logical" name="LTCTE"> F  </i>
   <i type="logical" name="LTETE"> F  </i>
   <i type="logical" name="LTRIPLET"> F  </i>
   <i type="logical" name="LFXCEPS"> F  </i>
   <i type="logical" name="LFXHEG"> F  </i>
   <i type="logical" name="L2ORDER"> F  </i>
   <i type="logical" name="LUSEW"> F  </i>
   <i name="ENCUTGW">     -2.00000000</i>
   <i name="ENCUTGWSOFT">     -2.00000000</i>
   <i name="ENCUTLF">     -1.00000000</i>
   <i type="int" name="LMAXMP2">    -1</i>
   <i name="SCISSOR">      0.00000000</i>
   <i type="int" name="NOMEGA">     0</i>
   <i type="int" name="NOMEGAR">     0</i>
   <i type="int" name="NBANDSGW">    -1</i>
   <i type="int" name="NBANDSO">    -1</i>
   <i type="int" name="NBANDSV">    -1</i>
   <i type="int" name="NELM">   300</i>
   <i type="int" name="DIM">     3</i>
   <i type="int" name="ANTIRES">     0</i>
   <i name="OMEGAMAX">    -30.00000000</i>
   <i name="OMEGAMIN">    -30.00000000</i>
   <i name="OMEGATL">   -200.00000000</i>
   <i type="int" name="OMEGAGRID">     0</i>
   <i name="CSHIFT">     -0.10000000</i>
   <i type="logical" name="SELFENERGY"> F  </i>
   <i type="logical" name="LSPECTRAL"> F  </i>
   <i type="logical" name="ODDONLYGW"> F  </i>
   <i type="logical" name="EVENONLYGW"> F  </i>
   <i type="int" name="NKREDLFX">     1</i>
   <i type="int" name="NKREDLFY">     1</i>
   <i type="int" name="NKREDLFZ">     1</i>
   <i type="int" name="MAXMEM">  1800</i>
   <i type="int" name="TELESCOPE">     0</i>
   <i type="int" name="TAUPAR">     1</i>
  </separator>
  <separator name="External order field" >
   <i name="OFIELD_KAPPA">      0.00000000</i>
   <v name="OFIELD_K">      0.00000000      0.00000000      0.00000000</v>
   <i name="OFIELD_Q6_NEAR">      0.00000000</i>
   <i name="OFIELD_Q6_FAR">      0.00000000</i>
   <i name="OFIELD_A">      0.00000000</i>
  </separator>
 </parameters>
 <atominfo>
  <atoms>      36 </atoms>
  <types>       3 </types>
  <array name="atoms" >
   <dimension dim="1">ion</dimension>
   <field type="string">element</field>
   <field type="int">atomtype</field>
   <set>
    <rc><c>Fe</c><c>   1</c></rc>
    <rc><c>Fe</c><c>   1</c></rc>
    <rc><c>Fe</c><c>   1</c></rc>
    <rc><c>Fe</c><c>   1</c></rc>
    <rc><c>Fe</c><c>   1</c></rc>
    <rc><c>Fe</c><c>   1</c></rc>
    <rc><c>Fe</c><c>   1</c></rc>
    <rc><c>Fe</c><c>   1</c></rc>
    <rc><c>Fe</c><c>   1</c></rc>
    <rc><c>Fe</c><c>   1</c></rc>
    <rc><c>Fe</c><c>   1</c></rc>
    <rc><c>Fe</c><c>   1</c></rc>
    <rc><c>O </c><c>   2</c></rc>
    <rc><c>O </c><c>   2</c></rc>
    <rc><c>F </c><c>   3</c></rc>
    <rc><c>F </c><c>   3</c></rc>
    <rc><c>F </c><c>   3</c></rc>
    <rc><c>F </c><c>   3</c></rc>
    <rc><c>F </c><c>   3</c></rc>
    <rc><c>F </c><c>   3</c></rc>
    <rc><c>F </c><c>   3</c></rc>
    <rc><c>F </c><c>   3</c></rc>
    <rc><c>F </c><c>   3</c></rc>
    <rc><c>F </c><c>   3</c></rc>
    <rc><c>F </c><c>   3</c></rc>
    <rc><c>F </c><c>   3</c></rc>
    <rc><c>F </c><c>   3</c></rc>
    <rc><c>F </c><c>   3</c></rc>
    <rc><c>F </c><c>   3</c></rc>
    <rc><c>F </c><c>   3</c></rc>
    <rc><c>F </c><c>   3</c></rc>
    <rc><c>F </c><c>   3</c></rc>
    <rc><c>F </c><c>   3</c></rc>
    <rc><c>F </c><c>   3</c></rc>
    <rc><c>F </c><c>   3</c></rc>
    <rc><c>F </c><c>   3</c></rc>
   </set>
  </array>
  <array name="atomtypes" >
   <dimension dim="1">type</dimension>
   <field type="int">atomspertype</field>
   <field type="string">element</field>
   <field>mass</field>
   <field>valence</field>
   <field type="string">pseudopotential</field>
   <set>
    <rc><c>  12</c><c>Fe</c><c>     55.84700000</c><c>      8.00000000</c><c>  PAW_PBE Fe 06Sep2000                  </c></rc>
    <rc><c>   2</c><c>O </c><c>     16.00000000</c><c>      6.00000000</c><c>  PAW_PBE O 08Apr2002                   </c></rc>
    <rc><c>  22</c><c>F </c><c>     18.99800000</c><c>      7.00000000</c><c>  PAW_PBE F 08Apr2002                   </c></rc>
   </set>
  </array>
 </atominfo>
 <structure name="initialpos" >
  <crystal>
   <varray name="basis" >
    <v>       3.25262800       0.00000000       0.00000000 </v>
    <v>       0.00000000      20.54938400       0.00000000 </v>
    <v>       0.00000000       0.00000000       6.79221100 </v>
   </varray>
   <i name="volume">    453.98799923 </i>
   <varray name="rec_basis" >
    <v>       0.30744370       0.00000000       0.00000000 </v>
    <v>       0.00000000       0.04866326       0.00000000 </v>
    <v>       0.00000000       0.00000000       0.14722746 </v>
   </varray>
  </crystal>
  <varray name="positions" >
   <v>       0.00000000       0.16671900       0.50139100 </v>
   <v>       0.00000000       0.83328100       0.50139100 </v>
   <v>       0.00000000       0.66671900       0.00139100 </v>
   <v>       0.00000000       0.33328100       0.00139100 </v>
   <v>       0.50000000       0.16602100       0.00000400 </v>
   <v>       0.50000000       0.83397900       0.00000400 </v>
   <v>       0.50000000       0.66602100       0.50000400 </v>
   <v>       0.50000000       0.33397900       0.50000400 </v>
   <v>       0.00000000       0.00000000       0.01216200 </v>
   <v>       0.00000000       0.50000000       0.51216200 </v>
   <v>       0.50000000       0.00000000       0.47240000 </v>
   <v>       0.50000000       0.50000000       0.97240000 </v>
   <v>       0.00000000       0.00000000       0.31436200 </v>
   <v>       0.00000000       0.50000000       0.81436200 </v>
   <v>       0.00000000       0.16816900       0.20329900 </v>
   <v>       0.00000000       0.83183100       0.20329900 </v>
   <v>       0.00000000       0.66816900       0.70329900 </v>
   <v>       0.00000000       0.33183100       0.70329900 </v>
   <v>       0.00000000       0.16838200       0.79934600 </v>
   <v>       0.00000000       0.83161800       0.79934600 </v>
   <v>       0.00000000       0.66838200       0.29934600 </v>
   <v>       0.00000000       0.33161800       0.29934600 </v>
   <v>       0.50000000       0.06837200       0.99633700 </v>
   <v>       0.50000000       0.93162800       0.99633700 </v>
   <v>       0.50000000       0.56837200       0.49633700 </v>
   <v>       0.50000000       0.43162800       0.49633700 </v>
   <v>       0.50000000       0.09818400       0.50567900 </v>
   <v>       0.50000000       0.90181600       0.50567900 </v>
   <v>       0.50000000       0.59818400       0.00567900 </v>
   <v>       0.50000000       0.40181600       0.00567900 </v>
   <v>       0.50000000       0.23406000       0.50152500 </v>
   <v>       0.50000000       0.76594000       0.50152500 </v>
   <v>       0.50000000       0.73406000       0.00152500 </v>
   <v>       0.50000000       0.26594000       0.00152500 </v>
   <v>       0.00000000       0.00000000       0.69474100 </v>
   <v>       0.00000000       0.50000000       0.19474100 </v>
  </varray>
 </structure>
 <calculation>
  <scstep>
   <time name="diag">    2.59    4.49</time>
   <time name="diis">    5.78   10.90</time>
   <time name="orth">    0.64    1.28</time>
   <time name="total">    9.23   17.11</time>
   <energy>
    <i name="alphaZ">    943.57652748 </i>
    <i name="ewald"> -15991.18747535 </i>
    <i name="hartreedc">  -6693.60015543 </i>
    <i name="XCdc">    902.22514073 </i>
    <i name="pawpsdc">  19213.82102697 </i>
    <i name="pawaedc"> -19422.08171028 </i>
    <i name="eentropy">      0.04782480 </i>
    <i name="bandstr">   1763.03102931 </i>
    <i name="atom">  22504.09828397 </i>
    <i name="e_fr_energy">   3219.93049221 </i>
    <i name="e_wo_entrp">   3219.88266741 </i>
    <i name="e_0_energy">   3219.91455061 </i>
   </energy>
  </scstep>
  <scstep>
   <time name="diag">    2.58    4.80</time>
   <time name="diis">    5.66    8.64</time>
   <time name="orth">    0.62    0.62</time>
   <time name="total">    8.87   14.07</time>
   <energy>
    <i name="e_fr_energy">   1012.04889361 </i>
    <i name="e_wo_entrp">   1012.04721176 </i>
    <i name="e_0_energy">   1012.04833299 </i>
   </energy>
  </scstep>
  <scstep>
   <time name="diag">    2.58    2.59</time>
   <time name="diis">    5.79    6.56</time>
   <time name="orth">    0.63    0.73</time>
   <time name="total">    9.00    9.89</time>
   <energy>
    <i name="e_fr_energy">    343.56574475 </i>
    <i name="e_wo_entrp">    343.65690879 </i>
    <i name="e_0_energy">    343.59613277 </i>
   </energy>
  </scstep>
  <scstep>
   <time name="diag">    2.58    4.34</time>
   <time name="diis">    5.69    8.66</time>
   <time name="orth">    0.62    1.07</time>
   <time name="total">    8.90   14.08</time>
   <energy>
    <i name="e_fr_energy">     67.66964399 </i>
    <i name="e_wo_entrp">     67.62872476 </i>
    <i name="e_0_energy">     67.65600425 </i>
   </energy>
  </scstep>
  <scstep>
   <time name="diag">    2.56    4.55</time>
   <time name="diis">    5.86   10.86</time>
   <time name="orth">    0.65    1.18</time>
   <time name="total">    9.07   16.60</time>
   <energy>
    <i name="e_fr_energy">    -89.83031228 </i>
    <i name="e_wo_entrp">    -89.89928416 </i>
    <i name="e_0_energy">    -89.85330291 </i>
   </energy>
  </scstep>
  <scstep>
   <time name="diag">    2.60    5.01</time>
   <time name="diis">    5.53   10.21</time>
   <time name="orth">    0.59    0.96</time>
   <time name="total">    8.73   16.19</time>
   <energy>
    <i name="e_fr_energy">   -160.99245746 </i>
    <i name="e_wo_entrp">   -161.06765611 </i>
    <i name="e_0_energy">   -161.01752368 </i>
   </energy>
  </scstep>
  <scstep>
   <time name="diag">    2.48    4.89</time>
   <time name="diis">    5.37    9.84</time>
   <time name="orth">    0.60    1.20</time>
   <time name="total">    8.46   15.93</time>
   <energy>
    <i name="e_fr_energy">   -197.57753836 </i>
    <i name="e_wo_entrp">   -197.70994029 </i>
    <i name="e_0_energy">   -197.62167234 </i>
   </energy>
  </scstep>
  <scstep>
   <time name="diag">    2.49    4.74</time>
   <time name="diis">    4.99    8.87</time>
   <time name="orth">    0.59    1.10</time>
   <time name="total">    8.07   14.72</time>
   <energy>
    <i name="e_fr_energy">   -212.04963295 </i>
    <i name="e_wo_entrp">   -212.22318409 </i>
    <i name="e_0_energy">   -212.10748333 </i>
   </energy>
  </scstep>
  <scstep>
   <time name="diag">    2.44    3.98</time>
   <time name="diis">   14.69   22.47</time>
   <time name="orth">    0.60    0.61</time>
   <time name="total">   17.73   27.06</time>
   <energy>
    <i name="e_fr_energy">   -226.25935332 </i>
    <i name="e_wo_entrp">   -226.46639529 </i>
    <i name="e_0_energy">   -226.32836731 </i>
   </energy>
  </scstep>
  <scstep>
   <time name="diag">    2.44    2.50</time>
   <time name="diis">   14.75   19.43</time>
   <time name="orth">    0.58    1.04</time>
   <time name="total">   17.78   22.98</time>
   <energy>
    <i name="e_fr_energy">   -226.57084951 </i>
    <i name="e_wo_entrp">   -226.76469123 </i>
    <i name="e_0_energy">   -226.63546342 </i>
   </energy>
  </scstep>
  <scstep>
   <time name="diag">    2.42    4.24</time>
   <time name="diis">   14.18   25.80</time>
   <time name="orth">    0.60    1.11</time>
   <time name="total">   17.21   31.15</time>
   <energy>
    <i name="e_fr_energy">   -226.81168322 </i>
    <i name="e_wo_entrp">   -226.99459459 </i>
    <i name="e_0_energy">   -226.87265368 </i>
   </energy>
  </scstep>
  <scstep>
   <time name="diag">    2.47    4.60</time>
   <time name="diis">   11.21   16.87</time>
   <time name="orth">    0.58    1.11</time>
   <time name="total">   15.25   24.02</time>
   <energy>
    <i name="e_fr_energy">   -226.90243970 </i>
    <i name="e_wo_entrp">   -227.08030090 </i>
    <i name="e_0_energy">   -226.96172677 </i>
   </energy>
  </scstep>
  <scstep>
   <time name="diag">    2.43    2.56</time>
   <time name="diis">   11.77   16.31</time>
   <time name="orth">    0.59    0.91</time>
   <time name="total">   15.95   21.61</time>
   <energy>
    <i name="e_fr_energy">   -211.10323660 </i>
    <i name="e_wo_entrp">   -211.04667212 </i>
    <i name="e_0_energy">   -211.08438177 </i>
   </energy>
  </scstep>
  <scstep>
   <time name="diag">    2.41    4.13</time>
   <time name="diis">   11.06   19.02</time>
   <time name="orth">    0.61    1.16</time>
   <time name="total">   15.25   26.36</time>
   <energy>
    <i name="e_fr_energy">   -257.98832692 </i>
    <i name="e_wo_entrp">   -258.12003442 </i>
    <i name="e_0_energy">   -258.03222942 </i>
   </energy>
  </scstep>
  <scstep>
   <time name="diag">    2.52    4.44</time>
   <time name="diis">   11.30   18.42</time>
   <time name="orth">    0.62    1.09</time>
   <time name="total">   15.62   25.83</time>
   <energy>
    <i name="e_fr_energy">   -250.78962221 </i>
    <i name="e_wo_entrp">   -250.66308842 </i>
    <i name="e_0_energy">   -250.74744428 </i>
   </energy>
  </scstep>
  <scstep>
   <time name="diag">    2.51    3.72</time>
   <time name="diis">   11.39   19.30</time>
   <time name="orth">    0.61    1.02</time>
   <time name="total">   15.70   26.25</time>
   <energy>
    <i name="e_fr_energy">   -218.44114539 </i>
    <i name="e_wo_entrp">   -218.38194337 </i>
    <i name="e_0_energy">   -218.42141139 </i>
   </energy>
  </scstep>
  <scstep>
   <time name="diag">    2.55    4.03</time>
   <time name="diis">   11.59   16.50</time>
   <time name="orth">    0.62    0.98</time>
   <time name="total">   15.97   23.67</time>
   <energy>
    <i name="e_fr_energy">   -248.65513038 </i>
    <i name="e_wo_entrp">   -248.58590095 </i>
    <i name="e_0_energy">   -248.63205391 </i>
   </energy>
  </scstep>
  <scstep>
   <time name="diag">    2.59    4.36</time>
   <time name="diis">   12.38   19.96</time>
   <time name="orth">    0.62    1.11</time>
   <time name="total">   16.85   27.72</time>
   <energy>
    <i name="e_fr_energy">   -252.61088197 </i>
    <i name="e_wo_entrp">   -252.55595045 </i>
    <i name="e_0_energy">   -252.59257146 </i>
   </energy>
  </scstep>
  <scstep>
   <time name="diag">    2.57    4.18</time>
   <time name="diis">   11.91   17.08</time>
   <time name="orth">    0.60    0.60</time>
   <time name="total">   16.29   23.28</time>
   <energy>
    <i name="e_fr_energy">   -228.73429284 </i>
    <i name="e_wo_entrp">   -228.59097623 </i>
    <i name="e_0_energy">   -228.68652063 </i>
   </energy>
  </scstep>
  <scstep>
   <time name="diag">    2.53    3.49</time>
   <time name="diis">   10.69   18.49</time>
   <time name="orth">    0.60    1.22</time>
   <time name="total">   15.05   24.92</time>
   <energy>
    <i name="e_fr_energy">   -231.16802807 </i>
    <i name="e_wo_entrp">   -231.31165452 </i>
    <i name="e_0_energy">   -231.21590355 </i>
   </energy>
  </scstep>
  <scstep>
   <time name="diag">    2.49    4.28</time>
   <time name="diis">   10.72   17.89</time>
   <time name="orth">    0.59    1.05</time>
   <time name="total">   15.02   25.68</time>
   <energy>
    <i name="e_fr_energy">   -243.24524698 </i>
    <i name="e_wo_entrp">   -243.12426868 </i>
    <i name="e_0_energy">   -243.20492088 </i>
   </energy>
  </scstep>
  <scstep>
   <time name="diag">    2.45    3.24</time>
   <time name="diis">   10.24   15.64</time>
   <time name="orth">    0.58    0.89</time>
   <time name="total">   14.45   21.77</time>
   <energy>
    <i name="e_fr_energy">   -221.23016121 </i>
    <i name="e_wo_entrp">   -221.24334642 </i>
    <i name="e_0_energy">   -221.23455628 </i>
   </energy>
  </scstep>
  <scstep>
   <time name="diag">    2.47    3.92</time>
   <time name="diis">   10.78   17.19</time>
   <time name="orth">    0.58    0.58</time>
   <time name="total">   15.02   23.08</time>
   <energy>
    <i name="e_fr_energy">   -229.42683081 </i>
    <i name="e_wo_entrp">   -229.45604914 </i>
    <i name="e_0_energy">   -229.43657026 </i>
   </energy>
  </scstep>
  <scstep>
   <time name="diag">    2.44    2.73</time>
   <time name="diis">   10.94   14.06</time>
   <time name="orth">    0.60    0.78</time>
   <time name="total">   15.19   19.81</time>
   <energy>
    <i name="e_fr_energy">   -212.87829739 </i>
    <i name="e_wo_entrp">   -212.95073838 </i>
    <i name="e_0_energy">   -212.90244439 </i>
   </energy>
  </scstep>
  <scstep>
   <time name="diag">    2.50    3.94</time>
   <time name="diis">   10.75   18.05</time>
   <time name="orth">    0.60    1.20</time>
   <time name="total">   15.06   25.36</time>
   <energy>
    <i name="e_fr_energy">   -209.03734799 </i>
    <i name="e_wo_entrp">   -209.00716275 </i>
    <i name="e_0_energy">   -209.02728624 </i>
   </energy>
  </scstep>
  <scstep>
   <time name="diag">    2.46    4.19</time>
   <time name="diis">   10.16   16.73</time>
   <time name="orth">    0.60    0.96</time>
   <time name="total">   14.44   24.03</time>
   <energy>
    <i name="e_fr_energy">   -199.82459058 </i>
    <i name="e_wo_entrp">   -199.84165222 </i>
    <i name="e_0_energy">   -199.83027779 </i>
   </energy>
  </scstep>
  <scstep>
   <time name="diag">    2.52    4.30</time>
   <time name="diis">   12.17   15.62</time>
   <time name="orth">    0.63    1.09</time>
   <time name="total">   16.55   23.14</time>
   <energy>
    <i name="e_fr_energy">   -199.43700525 </i>
    <i name="e_wo_entrp">   -199.44836806 </i>
    <i name="e_0_energy">   -199.44079285 </i>
   </energy>
  </scstep>
  <scstep>
   <time name="diag">    2.63    4.94</time>
   <time name="diis">   11.92   20.69</time>
   <time name="orth">    0.62    0.96</time>
   <time name="total">   16.41   28.53</time>
   <energy>
    <i name="e_fr_energy">   -196.41246968 </i>
    <i name="e_wo_entrp">   -196.41956363 </i>
    <i name="e_0_energy">   -196.41483433 </i>
   </energy>
  </scstep>
  <scstep>
   <time name="diag">    2.58    3.92</time>
   <time name="diis">   11.97   19.13</time>
   <time name="orth">    0.65    0.65</time>
   <time name="total">   16.43   25.13</time>
   <energy>
    <i name="e_fr_energy">   -195.79904864 </i>
    <i name="e_wo_entrp">   -195.78325889 </i>
    <i name="e_0_energy">   -195.79378539 </i>
   </energy>
  </scstep>
  <scstep>
   <time name="diag">    2.65    2.65</time>
   <time name="diis">   13.05   13.07</time>
   <time name="orth">    0.62    0.63</time>
   <time name="total">   17.60   17.63</time>
   <energy>
    <i name="e_fr_energy">   -195.85358704 </i>
    <i name="e_wo_entrp">   -195.85542104 </i>
    <i name="e_0_energy">   -195.85419837 </i>
   </energy>
  </scstep>
  <scstep>
   <time name="diag">    2.62    2.63</time>
   <time name="diis">   11.78   14.22</time>
   <time name="orth">    0.64    1.28</time>
   <time name="total">   16.30   19.99</time>
   <energy>
    <i name="e_fr_energy">   -195.41453186 </i>
    <i name="e_wo_entrp">   -195.42644893 </i>
    <i name="e_0_energy">   -195.41850422 </i>
   </energy>
  </scstep>
  <scstep>
   <time name="diag">    2.64    4.58</time>
   <time name="diis">   13.16   20.78</time>
   <time name="orth">    0.65    0.73</time>
   <time name="total">   17.70   27.62</time>
   <energy>
    <i name="e_fr_energy">   -194.95865758 </i>
    <i name="e_wo_entrp">   -195.00317404 </i>
    <i name="e_0_energy">   -194.97349640 </i>
   </energy>
  </scstep>
  <scstep>
   <time name="diag">    2.63    2.64</time>
   <time name="diis">   13.48   21.13</time>
   <time name="orth">    0.63    0.83</time>
   <time name="total">   18.02   26.89</time>
   <energy>
    <i name="e_fr_energy">   -194.78214027 </i>
    <i name="e_wo_entrp">   -194.78284046 </i>
    <i name="e_0_energy">   -194.78237367 </i>
   </energy>
  </scstep>
  <scstep>
   <time name="diag">    2.62    4.53</time>
   <time name="diis">   12.54   20.91</time>
   <time name="orth">    0.62    0.77</time>
   <time name="total">   17.04   28.30</time>
   <energy>
    <i name="e_fr_energy">   -194.75220443 </i>
    <i name="e_wo_entrp">   -194.77977700 </i>
    <i name="e_0_energy">   -194.76139529 </i>
   </energy>
  </scstep>
  <scstep>
   <time name="diag">    2.58    4.52</time>
   <time name="diis">   12.52   20.93</time>
   <time name="orth">    0.61    0.95</time>
   <time name="total">   16.94   28.61</time>
   <energy>
    <i name="e_fr_energy">   -194.68947954 </i>
    <i name="e_wo_entrp">   -194.68396862 </i>
    <i name="e_0_energy">   -194.68764257 </i>
   </energy>
  </scstep>
  <scstep>
   <time name="diag">    2.46    2.66</time>
   <time name="diis">   10.52   11.60</time>
   <time name="orth">    0.58    0.58</time>
   <time name="total">   14.78   16.58</time>
   <energy>
    <i name="e_fr_energy">   -194.64635937 </i>
    <i name="e_wo_entrp">   -194.61896570 </i>
    <i name="e_0_energy">   -194.63722815 </i>
   </energy>
  </scstep>
  <scstep>
   <time name="diag">    2.48    4.11</time>
   <time name="diis">   10.78   16.19</time>
   <time name="orth">    0.60    1.00</time>
   <time name="total">   15.06   23.38</time>
   <energy>
    <i name="e_fr_energy">   -194.62717365 </i>
    <i name="e_wo_entrp">   -194.63690880 </i>
    <i name="e_0_energy">   -194.63041870 </i>
   </energy>
  </scstep>
  <scstep>
   <time name="diag">    2.45    4.44</time>
   <time name="diis">   10.18   16.51</time>
   <time name="orth">    0.58    0.88</time>
   <time name="total">   14.43   23.28</time>
   <energy>
    <i name="e_fr_energy">   -194.60450617 </i>
    <i name="e_wo_entrp">   -194.60667129 </i>
    <i name="e_0_energy">   -194.60522788 </i>
   </energy>
  </scstep>
  <scstep>
   <time name="diag">    2.42    2.71</time>
   <time name="diis">   10.07   16.49</time>
   <time name="orth">    0.60    1.04</time>
   <time name="total">   14.30   21.47</time>
   <energy>
    <i name="e_fr_energy">   -194.58725447 </i>
    <i name="e_wo_entrp">   -194.58648765 </i>
    <i name="e_0_energy">   -194.58699886 </i>
   </energy>
  </scstep>
  <scstep>
   <time name="diag">    2.45    2.45</time>
   <time name="diis">   10.94   18.29</time>
   <time name="orth">    0.60    0.97</time>
   <time name="total">   15.21   22.96</time>
   <energy>
    <i name="e_fr_energy">   -194.59369964 </i>
    <i name="e_wo_entrp">   -194.58899267 </i>
    <i name="e_0_energy">   -194.59213065 </i>
   </energy>
  </scstep>
  <scstep>
   <time name="diag">    2.50    2.50</time>
   <time name="diis">   11.70   19.25</time>
   <time name="orth">    0.62    0.98</time>
   <time name="total">   16.04   24.57</time>
   <energy>
    <i name="e_fr_energy">   -194.57806585 </i>
    <i name="e_wo_entrp">   -194.57863819 </i>
    <i name="e_0_energy">   -194.57825663 </i>
   </energy>
  </scstep>
  <scstep>
   <time name="diag">    2.55    4.24</time>
   <time name="diis">    9.65   13.53</time>
   <time name="orth">    0.61    1.16</time>
   <time name="total">   14.06   21.00</time>
   <energy>
    <i name="e_fr_energy">   -194.57941462 </i>
    <i name="e_wo_entrp">   -194.57836383 </i>
    <i name="e_0_energy">   -194.57906436 </i>
   </energy>
  </scstep>
  <scstep>
   <time name="diag">    2.52    3.33</time>
   <time name="diis">   10.06   12.89</time>
   <time name="orth">    0.65    0.84</time>
   <time name="total">   14.52   19.36</time>
   <energy>
    <i name="e_fr_energy">   -194.57332492 </i>
    <i name="e_wo_entrp">   -194.57754950 </i>
    <i name="e_0_energy">   -194.57473312 </i>
   </energy>
  </scstep>
  <scstep>
   <time name="diag">    2.66    4.35</time>
   <time name="diis">    8.97   14.73</time>
   <time name="orth">    0.63    1.21</time>
   <time name="total">   13.54   22.21</time>
   <energy>
    <i name="e_fr_energy">   -194.57492962 </i>
    <i name="e_wo_entrp">   -194.57749053 </i>
    <i name="e_0_energy">   -194.57578326 </i>
   </energy>
  </scstep>
  <scstep>
   <time name="diag">    2.56    4.43</time>
   <time name="diis">   10.23   17.39</time>
   <time name="orth">    0.62    0.91</time>
   <time name="total">   14.68   24.83</time>
   <energy>
    <i name="e_fr_energy">   -194.57127249 </i>
    <i name="e_wo_entrp">   -194.58732481 </i>
    <i name="e_0_energy">   -194.57662326 </i>
   </energy>
  </scstep>
  <scstep>
   <time name="diag">    2.57    4.17</time>
   <time name="diis">    6.87   11.54</time>
   <time name="orth">    0.64    1.26</time>
   <time name="total">   11.32   19.01</time>
   <energy>
    <i name="e_fr_energy">   -194.57170384 </i>
    <i name="e_wo_entrp">   -194.58619432 </i>
    <i name="e_0_energy">   -194.57653400 </i>
   </energy>
  </scstep>
  <scstep>
   <time name="diag">    2.54    4.15</time>
   <time name="diis">    7.51   11.78</time>
   <time name="orth">    0.60    1.12</time>
   <time name="total">   11.91   19.11</time>
   <energy>
    <i name="e_fr_energy">   -194.57129666 </i>
    <i name="e_wo_entrp">   -194.59144839 </i>
    <i name="e_0_energy">   -194.57801390 </i>
   </energy>
  </scstep>
  <scstep>
   <time name="diag">    2.44    3.75</time>
   <time name="diis">    5.87   10.27</time>
   <time name="orth">    0.60    1.21</time>
   <time name="total">   10.14   17.46</time>
   <energy>
    <i name="e_fr_energy">   -194.57182664 </i>
    <i name="e_wo_entrp">   -194.59242134 </i>
    <i name="e_0_energy">   -194.57869154 </i>
   </energy>
  </scstep>
  <scstep>
   <time name="diag">    2.46    4.13</time>
   <time name="diis">    7.23   12.86</time>
   <time name="orth">    0.59    1.03</time>
   <time name="total">   11.50   20.19</time>
   <energy>
    <i name="e_fr_energy">   -194.57306700 </i>
    <i name="e_wo_entrp">   -194.59846562 </i>
    <i name="e_0_energy">   -194.58153321 </i>
   </energy>
  </scstep>
  <scstep>
   <time name="diag">    2.47    4.91</time>
   <time name="diis">    5.37    9.18</time>
   <time name="orth">    0.60    1.06</time>
   <time name="total">    9.67   16.75</time>
   <energy>
    <i name="e_fr_energy">   -194.57323775 </i>
    <i name="e_wo_entrp">   -194.59880277 </i>
    <i name="e_0_energy">   -194.58175943 </i>
   </energy>
  </scstep>
  <scstep>
   <time name="diag">    2.48    2.48</time>
   <time name="diis">    5.59   10.14</time>
   <time name="orth">    0.61    1.23</time>
   <time name="total">    9.92   15.21</time>
   <energy>
    <i name="e_fr_energy">   -194.57347726 </i>
    <i name="e_wo_entrp">   -194.60096183 </i>
    <i name="e_0_energy">   -194.58263878 </i>
   </energy>
  </scstep>
  <scstep>
   <time name="diag">    2.51    3.13</time>
   <time name="diis">    5.55    6.41</time>
   <time name="orth">    0.61    1.23</time>
   <time name="total">    9.90   12.85</time>
   <energy>
    <i name="e_fr_energy">   -194.57367192 </i>
    <i name="e_wo_entrp">   -194.60213637 </i>
    <i name="e_0_energy">   -194.58316007 </i>
   </energy>
  </scstep>
  <scstep>
   <time name="diag">    2.46    3.97</time>
   <time name="diis">    5.07    9.18</time>
   <time name="orth">    0.58    0.95</time>
   <time name="total">    9.34   16.00</time>
   <energy>
    <i name="e_fr_energy">   -194.57387332 </i>
    <i name="e_wo_entrp">   -194.60324503 </i>
    <i name="e_0_energy">   -194.58366389 </i>
   </energy>
  </scstep>
  <scstep>
   <time name="diag">    2.41    3.06</time>
   <time name="diis">    5.07    9.44</time>
   <time name="orth">    0.60    1.14</time>
   <time name="total">    8.28   13.85</time>
   <energy>
    <i name="alphaZ">    943.57652748 </i>
    <i name="ewald"> -15991.18747535 </i>
    <i name="hartreedc">  -6814.53363480 </i>
    <i name="XCdc">    916.76569273 </i>
    <i name="pawpsdc">  22381.54877804 </i>
    <i name="pawaedc"> -22596.13642752 </i>
    <i name="eentropy">      0.02873899 </i>
    <i name="bandstr">  -1538.73436093 </i>
    <i name="atom">  22504.09828397 </i>
    <i name="e_fr_energy">   -194.57387739 </i>
    <i name="e_wo_entrp">   -194.60261638 </i>
    <i name="e_0_energy">   -194.58345705 </i>
   </energy>
  </scstep>
  <structure>
   <crystal>
    <varray name="basis" >
     <v>       3.25262800       0.00000000       0.00000000 </v>
     <v>       0.00000000      20.54938400       0.00000000 </v>
     <v>       0.00000000       0.00000000       6.79221100 </v>
    </varray>
    <i name="volume">    453.98799923 </i>
    <varray name="rec_basis" >
     <v>       0.30744370       0.00000000       0.00000000 </v>
     <v>       0.00000000       0.04866326       0.00000000 </v>
     <v>       0.00000000       0.00000000       0.14722746 </v>
    </varray>
   </crystal>
   <varray name="positions" >
    <v>       0.00000000       0.16671900       0.50139100 </v>
    <v>       0.00000000       0.83328100       0.50139100 </v>
    <v>       0.00000000       0.66671900       0.00139100 </v>
    <v>       0.00000000       0.33328100       0.00139100 </v>
    <v>       0.50000000       0.16602100       0.00000400 </v>
    <v>       0.50000000       0.83397900       0.00000400 </v>
    <v>       0.50000000       0.66602100       0.50000400 </v>
    <v>       0.50000000       0.33397900       0.50000400 </v>
    <v>       0.00000000       0.00000000       0.01216200 </v>
    <v>       0.00000000       0.50000000       0.51216200 </v>
    <v>       0.50000000       0.00000000       0.47240000 </v>
    <v>       0.50000000       0.50000000       0.97240000 </v>
    <v>       0.00000000       0.00000000       0.31436200 </v>
    <v>       0.00000000       0.50000000       0.81436200 </v>
    <v>       0.00000000       0.16816900       0.20329900 </v>
    <v>       0.00000000       0.83183100       0.20329900 </v>
    <v>       0.00000000       0.66816900       0.70329900 </v>
    <v>       0.00000000       0.33183100       0.70329900 </v>
    <v>       0.00000000       0.16838200       0.79934600 </v>
    <v>       0.00000000       0.83161800       0.79934600 </v>
    <v>       0.00000000       0.66838200       0.29934600 </v>
    <v>       0.00000000       0.33161800       0.29934600 </v>
    <v>       0.50000000       0.06837200       0.99633700 </v>
    <v>       0.50000000       0.93162800       0.99633700 </v>
    <v>       0.50000000       0.56837200       0.49633700 </v>
    <v>       0.50000000       0.43162800       0.49633700 </v>
    <v>       0.50000000       0.09818400       0.50567900 </v>
    <v>       0.50000000       0.90181600       0.50567900 </v>
    <v>       0.50000000       0.59818400       0.00567900 </v>
    <v>       0.50000000       0.40181600       0.00567900 </v>
    <v>       0.50000000       0.23406000       0.50152500 </v>
    <v>       0.50000000       0.76594000       0.50152500 </v>
    <v>       0.50000000       0.73406000       0.00152500 </v>
    <v>       0.50000000       0.26594000       0.00152500 </v>
    <v>       0.00000000       0.00000000       0.69474100 </v>
    <v>       0.00000000       0.50000000       0.19474100 </v>
   </varray>
  </structure>
  <varray name="forces" >
   <v>       0.00000007      -0.07671473       0.02679400 </v>
   <v>      -0.00000071       0.07687605       0.02652914 </v>
   <v>      -0.00000123      -0.07673903       0.02695162 </v>
   <v>       0.00000001       0.07618301       0.02675984 </v>
   <v>       0.00000367       0.25459182       0.05086342 </v>
   <v>      -0.00000093      -0.25390362       0.05081919 </v>
   <v>      -0.00000218       0.25485029       0.05087249 </v>
   <v>      -0.00000183      -0.25418047       0.05080218 </v>
   <v>       0.00000748       0.00018248       1.27689486 </v>
   <v>      -0.00000761      -0.00009220       1.28122988 </v>
   <v>       0.00000235      -0.00007193      -0.19067283 </v>
   <v>       0.00000595      -0.00056260      -0.19338981 </v>
   <v>       0.00000461      -0.00064020      -0.99132194 </v>
   <v>      -0.00000049      -0.00056577      -0.99185735 </v>
   <v>       0.00000839      -0.13449348      -0.55054228 </v>
   <v>       0.00000239       0.13494342      -0.54996665 </v>
   <v>      -0.00000380      -0.13488606      -0.54970283 </v>
   <v>      -0.00000870       0.13513296      -0.54867572 </v>
   <v>       0.00001296      -0.11830510       0.52201757 </v>
   <v>      -0.00000831       0.11776042       0.52145229 </v>
   <v>       0.00000231      -0.11827147       0.52133772 </v>
   <v>       0.00000530       0.11871839       0.52027526 </v>
   <v>       0.00001514      -0.53670068       0.15316484 </v>
   <v>      -0.00003379       0.53589255       0.15262387 </v>
   <v>       0.00000084      -0.53447295       0.15267465 </v>
   <v>       0.00001006       0.53475985       0.15268346 </v>
   <v>       0.00000226       0.91233104      -0.12945611 </v>
   <v>       0.00000249      -0.91243016      -0.13014672 </v>
   <v>      -0.00000436       0.91422377      -0.12862328 </v>
   <v>      -0.00000598      -0.91308533      -0.12908598 </v>
   <v>       0.00001302      -0.52401428      -0.02912380 </v>
   <v>      -0.00000701       0.52380352      -0.02898225 </v>
   <v>       0.00000246      -0.52581391      -0.02929751 </v>
   <v>      -0.00001014       0.52581233      -0.02940590 </v>
   <v>      -0.00000181      -0.00015397      -0.18215563 </v>
   <v>      -0.00000288       0.00003608      -0.18233966 </v>
  </varray>
  <varray name="stress" >
   <v>    -286.97980975       0.00013410       0.00041064 </v>
   <v>       0.00013265    -244.81783997       0.02611870 </v>
   <v>       0.00041051       0.02612000    -274.25547179 </v>
  </varray>
  <energy>
   <i name="e_fr_energy">   -194.57387739 </i>
   <i name="e_wo_entrp">   -194.58345705 </i>
   <i name="e_0_energy">      0.02873899 </i>
  </energy>
  <time name="totalsc">  767.18 1190.15</time>
  <eigenvalues>
   <array>
    <dimension dim="1">band</dimension>
    <dimension dim="2">kpoint</dimension>
    <dimension dim="3">spin</dimension>
    <field>eigene</field>
    <field>occ</field>
    <set>
     <set comment="spin 1">
      <set comment="kpoint 1">
       <r>  -22.8516    1.0000 </r>
       <r>  -22.8385    1.0000 </r>
       <r>  -22.7205    1.0000 </r>
       <r>  -22.6998    1.0000 </r>
       <r>  -22.4775    1.0000 </r>
       <r>  -22.4691    1.0000 </r>
       <r>  -22.4505    1.0000 </r>
       <r>  -22.4258    1.0000 </r>
       <r>  -22.4180    1.0000 </r>
       <r>  -22.4170    1.0000 </r>
       <r>  -22.4031    1.0000 </r>
       <r>  -22.4009    1.0000 </r>
       <r>  -22.3449    1.0000 </r>
       <r>  -22.3387    1.0000 </r>
       <r>  -22.2866    1.0000 </r>
       <r>  -22.2856    1.0000 </r>
       <r>  -22.2776    1.0000 </r>
       <r>  -22.2772    1.0000 </r>
       <r>  -22.2537    1.0000 </r>
       <r>  -22.2333    1.0000 </r>
       <r>  -21.4012    1.0000 </r>
       <r>  -21.3997    1.0000 </r>
       <r>  -16.7054    1.0000 </r>
       <r>  -16.7047    1.0000 </r>
       <r>   -6.3001    1.0000 </r>
       <r>   -6.2056    1.0000 </r>
       <r>   -6.0542    1.0000 </r>
       <r>   -5.9814    1.0000 </r>
       <r>   -5.7580    1.0000 </r>
       <r>   -5.5901    1.0000 </r>
       <r>   -5.5049    1.0000 </r>
       <r>   -5.5035    1.0000 </r>
       <r>   -5.3928    1.0000 </r>
       <r>   -5.1917    1.0000 </r>
       <r>   -4.7166    1.0000 </r>
       <r>   -4.7117    1.0000 </r>
       <r>   -4.6741    1.0000 </r>
       <r>   -4.6313    1.0000 </r>
       <r>   -4.5331    1.0000 </r>
       <r>   -4.4680    1.0000 </r>
       <r>   -4.4410    1.0000 </r>
       <r>   -4.4409    1.0000 </r>
       <r>   -4.4394    1.0000 </r>
       <r>   -4.4349    1.0000 </r>
       <r>   -4.4231    1.0000 </r>
       <r>   -4.4221    1.0000 </r>
       <r>   -4.4195    1.0000 </r>
       <r>   -4.3464    1.0000 </r>
       <r>   -4.3374    1.0000 </r>
       <r>   -4.3351    1.0000 </r>
       <r>   -4.3157    1.0000 </r>
       <r>   -4.3006    1.0000 </r>
       <r>   -4.2713    1.0000 </r>
       <r>   -4.2495    1.0000 </r>
       <r>   -4.2327    1.0000 </r>
       <r>   -4.2318    1.0000 </r>
       <r>   -4.2268    1.0000 </r>
       <r>   -4.2097    1.0000 </r>
       <r>   -4.1715    1.0000 </r>
       <r>   -4.1106    1.0000 </r>
       <r>   -4.0789    1.0000 </r>
       <r>   -3.9999    1.0000 </r>
       <r>   -3.9872    1.0000 </r>
       <r>   -3.8279    1.0000 </r>
       <r>   -3.7216    1.0000 </r>
       <r>   -3.7138    1.0000 </r>
       <r>   -3.6781    1.0000 </r>
       <r>   -3.6477    1.0000 </r>
       <r>   -3.6327    1.0000 </r>
       <r>   -3.6147    1.0000 </r>
       <r>   -3.5938    1.0000 </r>
       <r>   -3.4773    1.0000 </r>
       <r>   -3.3935    1.0000 </r>
       <r>   -3.3931    1.0000 </r>
       <r>   -3.3674    1.0000 </r>
       <r>   -3.3664    1.0000 </r>
       <r>   -3.3532    1.0000 </r>
       <r>   -3.2570    1.0000 </r>
       <r>   -3.2506    1.0000 </r>
       <r>   -3.2302    1.0000 </r>
       <r>   -3.1874    1.0000 </r>
       <r>   -3.1360    1.0000 </r>
       <r>   -3.1260    1.0000 </r>
       <r>   -3.0459    1.0000 </r>
       <r>   -2.9503    1.0000 </r>
       <r>   -2.9238    1.0000 </r>
       <r>   -2.7422    1.0000 </r>
       <r>   -2.6747    1.0000 </r>
       <r>   -2.3447    1.0000 </r>
       <r>   -2.3407    1.0000 </r>
       <r>   -2.3098    1.0000 </r>
       <r>   -2.2632    1.0000 </r>
       <r>   -2.1130    1.0000 </r>
       <r>   -2.1097    1.0000 </r>
       <r>   -1.4571    1.0000 </r>
       <r>   -1.4500    1.0000 </r>
       <r>    0.7828    1.0000 </r>
       <r>    0.7858    1.0000 </r>
       <r>    0.9050    1.0000 </r>
       <r>    0.9199    1.0000 </r>
       <r>    0.9506    1.0000 </r>
       <r>    0.9607    1.0000 </r>
       <r>    0.9747    1.0000 </r>
       <r>    1.0000    1.0001 </r>
       <r>    1.0211    1.0002 </r>
       <r>    1.0276    1.0002 </r>
       <r>    1.0414    1.0003 </r>
       <r>    1.0597    1.0005 </r>
       <r>    1.1091    1.0015 </r>
       <r>    1.1441    1.0030 </r>
       <r>    1.1477    1.0032 </r>
       <r>    1.1595    1.0040 </r>
       <r>    1.1969    1.0077 </r>
       <r>    1.1973    1.0078 </r>
       <r>    1.1988    1.0080 </r>
       <r>    1.2036    1.0086 </r>
       <r>    1.2053    1.0089 </r>
       <r>    1.2077    1.0092 </r>
       <r>    1.2132    1.0100 </r>
       <r>    1.2159    1.0104 </r>
       <r>    1.2266    1.0122 </r>
       <r>    1.2934    1.0264 </r>
       <r>    1.3002    1.0279 </r>
       <r>    1.3296    1.0335 </r>
       <r>    1.3806    1.0322 </r>
       <r>    1.4397    0.9889 </r>
       <r>    1.5052    0.8521 </r>
       <r>    1.5151    0.8223 </r>
       <r>    1.5681    0.6286 </r>
       <r>    1.6098    0.4538 </r>
       <r>    1.6184    0.4179 </r>
       <r>    1.6615    0.2488 </r>
       <r>    1.7158    0.0869 </r>
       <r>    1.7980   -0.0247 </r>
       <r>    1.7986   -0.0250 </r>
       <r>    1.9213   -0.0225 </r>
       <r>    1.9397   -0.0184 </r>
       <r>    2.0333   -0.0044 </r>
       <r>    2.1127   -0.0008 </r>
       <r>    2.1863   -0.0001 </r>
       <r>    2.1885   -0.0001 </r>
       <r>    2.2353   -0.0000 </r>
       <r>    2.2380   -0.0000 </r>
       <r>    2.3125   -0.0000 </r>
       <r>    2.3153   -0.0000 </r>
       <r>    2.3282   -0.0000 </r>
       <r>    2.3990   -0.0000 </r>
       <r>    2.4004   -0.0000 </r>
       <r>    2.4009   -0.0000 </r>
       <r>    2.4019   -0.0000 </r>
       <r>    2.4044   -0.0000 </r>
       <r>    2.8074   -0.0000 </r>
       <r>    2.9009   -0.0000 </r>
       <r>    3.0604   -0.0000 </r>
       <r>    3.1868   -0.0000 </r>
       <r>    3.1872   -0.0000 </r>
       <r>    4.0554   -0.0000 </r>
      </set>
      <set comment="kpoint 2">
       <r>  -22.5512    1.0000 </r>
       <r>  -22.5504    1.0000 </r>
       <r>  -22.5355    1.0000 </r>
       <r>  -22.5328    1.0000 </r>
       <r>  -22.4068    1.0000 </r>
       <r>  -22.4046    1.0000 </r>
       <r>  -22.4025    1.0000 </r>
       <r>  -22.3890    1.0000 </r>
       <r>  -22.3884    1.0000 </r>
       <r>  -22.3876    1.0000 </r>
       <r>  -22.3830    1.0000 </r>
       <r>  -22.3589    1.0000 </r>
       <r>  -22.3522    1.0000 </r>
       <r>  -22.3511    1.0000 </r>
       <r>  -22.2985    1.0000 </r>
       <r>  -22.2875    1.0000 </r>
       <r>  -22.2660    1.0000 </r>
       <r>  -22.2537    1.0000 </r>
       <r>  -22.2215    1.0000 </r>
       <r>  -22.2136    1.0000 </r>
       <r>  -21.3562    1.0000 </r>
       <r>  -21.3549    1.0000 </r>
       <r>  -16.5432    1.0000 </r>
       <r>  -16.5425    1.0000 </r>
       <r>   -5.8284    1.0000 </r>
       <r>   -5.8215    1.0000 </r>
       <r>   -5.7858    1.0000 </r>
       <r>   -5.6440    1.0000 </r>
       <r>   -5.6193    1.0000 </r>
       <r>   -5.5671    1.0000 </r>
       <r>   -5.4651    1.0000 </r>
       <r>   -5.2844    1.0000 </r>
       <r>   -5.2134    1.0000 </r>
       <r>   -5.1854    1.0000 </r>
       <r>   -5.1289    1.0000 </r>
       <r>   -5.1070    1.0000 </r>
       <r>   -5.0792    1.0000 </r>
       <r>   -5.0509    1.0000 </r>
       <r>   -5.0471    1.0000 </r>
       <r>   -5.0276    1.0000 </r>
       <r>   -4.9676    1.0000 </r>
       <r>   -4.9267    1.0000 </r>
       <r>   -4.8886    1.0000 </r>
       <r>   -4.8722    1.0000 </r>
       <r>   -4.8251    1.0000 </r>
       <r>   -4.7880    1.0000 </r>
       <r>   -4.7379    1.0000 </r>
       <r>   -4.7168    1.0000 </r>
       <r>   -4.6825    1.0000 </r>
       <r>   -4.5571    1.0000 </r>
       <r>   -4.5247    1.0000 </r>
       <r>   -4.4321    1.0000 </r>
       <r>   -4.3987    1.0000 </r>
       <r>   -4.3942    1.0000 </r>
       <r>   -4.3649    1.0000 </r>
       <r>   -4.3633    1.0000 </r>
       <r>   -4.3601    1.0000 </r>
       <r>   -4.3531    1.0000 </r>
       <r>   -4.3504    1.0000 </r>
       <r>   -4.2770    1.0000 </r>
       <r>   -4.2756    1.0000 </r>
       <r>   -4.2655    1.0000 </r>
       <r>   -4.2436    1.0000 </r>
       <r>   -4.2316    1.0000 </r>
       <r>   -4.0671    1.0000 </r>
       <r>   -3.9590    1.0000 </r>
       <r>   -3.8304    1.0000 </r>
       <r>   -3.8290    1.0000 </r>
       <r>   -3.6945    1.0000 </r>
       <r>   -3.6880    1.0000 </r>
       <r>   -3.5398    1.0000 </r>
       <r>   -3.5283    1.0000 </r>
       <r>   -3.4967    1.0000 </r>
       <r>   -3.3305    1.0000 </r>
       <r>   -3.3232    1.0000 </r>
       <r>   -3.3119    1.0000 </r>
       <r>   -3.2969    1.0000 </r>
       <r>   -3.2680    1.0000 </r>
       <r>   -3.2125    1.0000 </r>
       <r>   -3.1640    1.0000 </r>
       <r>   -3.1518    1.0000 </r>
       <r>   -3.1154    1.0000 </r>
       <r>   -3.1150    1.0000 </r>
       <r>   -3.1116    1.0000 </r>
       <r>   -3.0857    1.0000 </r>
       <r>   -3.0489    1.0000 </r>
       <r>   -3.0362    1.0000 </r>
       <r>   -2.9799    1.0000 </r>
       <r>   -2.4835    1.0000 </r>
       <r>   -2.4788    1.0000 </r>
       <r>   -2.3778    1.0000 </r>
       <r>   -2.3773    1.0000 </r>
       <r>   -2.3391    1.0000 </r>
       <r>   -2.3332    1.0000 </r>
       <r>   -1.6893    1.0000 </r>
       <r>   -1.6860    1.0000 </r>
       <r>    0.9410    1.0000 </r>
       <r>    0.9443    1.0000 </r>
       <r>    0.9821    1.0001 </r>
       <r>    1.0186    1.0002 </r>
       <r>    1.0431    1.0003 </r>
       <r>    1.0444    1.0003 </r>
       <r>    1.1620    1.0042 </r>
       <r>    1.1651    1.0045 </r>
       <r>    1.2203    1.0111 </r>
       <r>    1.2529    1.0173 </r>
       <r>    1.2643    1.0198 </r>
       <r>    1.2686    1.0207 </r>
       <r>    1.2727    1.0217 </r>
       <r>    1.3026    1.0285 </r>
       <r>    1.3048    1.0290 </r>
       <r>    1.3094    1.0299 </r>
       <r>    1.3151    1.0311 </r>
       <r>    1.3481    1.0353 </r>
       <r>    1.3737    1.0337 </r>
       <r>    1.3869    1.0303 </r>
       <r>    1.3904    1.0290 </r>
       <r>    1.4003    1.0244 </r>
       <r>    1.4042    1.0222 </r>
       <r>    1.4063    1.0208 </r>
       <r>    1.4101    1.0183 </r>
       <r>    1.4135    1.0158 </r>
       <r>    1.4157    1.0141 </r>
       <r>    1.4220    1.0086 </r>
       <r>    1.4248    1.0059 </r>
       <r>    1.4267    1.0040 </r>
       <r>    1.4915    0.8896 </r>
       <r>    1.4971    0.8750 </r>
       <r>    1.5395    0.7395 </r>
       <r>    1.5694    0.6231 </r>
       <r>    1.6138    0.4370 </r>
       <r>    1.6171    0.4232 </r>
       <r>    1.6262    0.3857 </r>
       <r>    1.6369    0.3421 </r>
       <r>    1.6928    0.1470 </r>
       <r>    1.7029    0.1190 </r>
       <r>    1.8669   -0.0337 </r>
       <r>    1.8699   -0.0333 </r>
       <r>    1.8877   -0.0301 </r>
       <r>    1.9183   -0.0232 </r>
       <r>    1.9192   -0.0230 </r>
       <r>    1.9207   -0.0226 </r>
       <r>    1.9307   -0.0204 </r>
       <r>    1.9315   -0.0202 </r>
       <r>    2.1626   -0.0002 </r>
       <r>    2.2212   -0.0000 </r>
       <r>    2.2730   -0.0000 </r>
       <r>    2.2869   -0.0000 </r>
       <r>    2.3238   -0.0000 </r>
       <r>    2.3262   -0.0000 </r>
       <r>    2.3355   -0.0000 </r>
       <r>    2.3451   -0.0000 </r>
       <r>    2.5624   -0.0000 </r>
       <r>    2.5694   -0.0000 </r>
       <r>    2.6142   -0.0000 </r>
       <r>    2.6376   -0.0000 </r>
       <r>    8.7021    0.0000 </r>
      </set>
      <set comment="kpoint 3">
       <r>  -22.8455    1.0000 </r>
       <r>  -22.8449    1.0000 </r>
       <r>  -22.7103    1.0000 </r>
       <r>  -22.7097    1.0000 </r>
       <r>  -22.4736    1.0000 </r>
       <r>  -22.4734    1.0000 </r>
       <r>  -22.4391    1.0000 </r>
       <r>  -22.4389    1.0000 </r>
       <r>  -22.4190    1.0000 </r>
       <r>  -22.4183    1.0000 </r>
       <r>  -22.4022    1.0000 </r>
       <r>  -22.4015    1.0000 </r>
       <r>  -22.3392    1.0000 </r>
       <r>  -22.3389    1.0000 </r>
       <r>  -22.2932    1.0000 </r>
       <r>  -22.2931    1.0000 </r>
       <r>  -22.2745    1.0000 </r>
       <r>  -22.2742    1.0000 </r>
       <r>  -22.2405    1.0000 </r>
       <r>  -22.2403    1.0000 </r>
       <r>  -21.4005    1.0000 </r>
       <r>  -21.4004    1.0000 </r>
       <r>  -16.7053    1.0000 </r>
       <r>  -16.7049    1.0000 </r>
       <r>   -6.2606    1.0000 </r>
       <r>   -6.2601    1.0000 </r>
       <r>   -6.0097    1.0000 </r>
       <r>   -6.0090    1.0000 </r>
       <r>   -5.6982    1.0000 </r>
       <r>   -5.6980    1.0000 </r>
       <r>   -5.5029    1.0000 </r>
       <r>   -5.5026    1.0000 </r>
       <r>   -5.2621    1.0000 </r>
       <r>   -5.2619    1.0000 </r>
       <r>   -4.7379    1.0000 </r>
       <r>   -4.7376    1.0000 </r>
       <r>   -4.6563    1.0000 </r>
       <r>   -4.6557    1.0000 </r>
       <r>   -4.4935    1.0000 </r>
       <r>   -4.4933    1.0000 </r>
       <r>   -4.4413    1.0000 </r>
       <r>   -4.4407    1.0000 </r>
       <r>   -4.4369    1.0000 </r>
       <r>   -4.4364    1.0000 </r>
       <r>   -4.4226    1.0000 </r>
       <r>   -4.4219    1.0000 </r>
       <r>   -4.3859    1.0000 </r>
       <r>   -4.3855    1.0000 </r>
       <r>   -4.3416    1.0000 </r>
       <r>   -4.3412    1.0000 </r>
       <r>   -4.2882    1.0000 </r>
       <r>   -4.2875    1.0000 </r>
       <r>   -4.2634    1.0000 </r>
       <r>   -4.2633    1.0000 </r>
       <r>   -4.2273    1.0000 </r>
       <r>   -4.2270    1.0000 </r>
       <r>   -4.2233    1.0000 </r>
       <r>   -4.2231    1.0000 </r>
       <r>   -4.1396    1.0000 </r>
       <r>   -4.1393    1.0000 </r>
       <r>   -4.0604    1.0000 </r>
       <r>   -4.0601    1.0000 </r>
       <r>   -3.8970    1.0000 </r>
       <r>   -3.8968    1.0000 </r>
       <r>   -3.6970    1.0000 </r>
       <r>   -3.6966    1.0000 </r>
       <r>   -3.6753    1.0000 </r>
       <r>   -3.6751    1.0000 </r>
       <r>   -3.6263    1.0000 </r>
       <r>   -3.6259    1.0000 </r>
       <r>   -3.5404    1.0000 </r>
       <r>   -3.5398    1.0000 </r>
       <r>   -3.3935    1.0000 </r>
       <r>   -3.3932    1.0000 </r>
       <r>   -3.3598    1.0000 </r>
       <r>   -3.3596    1.0000 </r>
       <r>   -3.3133    1.0000 </r>
       <r>   -3.3131    1.0000 </r>
       <r>   -3.2424    1.0000 </r>
       <r>   -3.2418    1.0000 </r>
       <r>   -3.1828    1.0000 </r>
       <r>   -3.1827    1.0000 </r>
       <r>   -3.0393    1.0000 </r>
       <r>   -3.0390    1.0000 </r>
       <r>   -2.9609    1.0000 </r>
       <r>   -2.9604    1.0000 </r>
       <r>   -2.7049    1.0000 </r>
       <r>   -2.7044    1.0000 </r>
       <r>   -2.3423    1.0000 </r>
       <r>   -2.3423    1.0000 </r>
       <r>   -2.2865    1.0000 </r>
       <r>   -2.2862    1.0000 </r>
       <r>   -2.1107    1.0000 </r>
       <r>   -2.1105    1.0000 </r>
       <r>   -1.4539    1.0000 </r>
       <r>   -1.4535    1.0000 </r>
       <r>    0.7844    1.0000 </r>
       <r>    0.7853    1.0000 </r>
       <r>    0.9414    1.0000 </r>
       <r>    0.9422    1.0000 </r>
       <r>    0.9509    1.0000 </r>
       <r>    0.9512    1.0000 </r>
       <r>    0.9636    1.0000 </r>
       <r>    0.9640    1.0000 </r>
       <r>    1.0137    1.0001 </r>
       <r>    1.0141    1.0001 </r>
       <r>    1.0582    1.0004 </r>
       <r>    1.0588    1.0005 </r>
       <r>    1.1180    1.0018 </r>
       <r>    1.1182    1.0018 </r>
       <r>    1.1592    1.0040 </r>
       <r>    1.1598    1.0040 </r>
       <r>    1.1926    1.0072 </r>
       <r>    1.1929    1.0072 </r>
       <r>    1.1995    1.0081 </r>
       <r>    1.2000    1.0081 </r>
       <r>    1.2056    1.0089 </r>
       <r>    1.2061    1.0090 </r>
       <r>    1.2147    1.0102 </r>
       <r>    1.2158    1.0104 </r>
       <r>    1.2735    1.0218 </r>
       <r>    1.2740    1.0220 </r>
       <r>    1.3025    1.0285 </r>
       <r>    1.3031    1.0286 </r>
       <r>    1.4194    1.0110 </r>
       <r>    1.4196    1.0107 </r>
       <r>    1.5238    0.7940 </r>
       <r>    1.5242    0.7930 </r>
       <r>    1.5490    0.7040 </r>
       <r>    1.5494    0.7023 </r>
       <r>    1.6681    0.2255 </r>
       <r>    1.6687    0.2235 </r>
       <r>    1.7534    0.0173 </r>
       <r>    1.7540    0.0164 </r>
       <r>    1.8382   -0.0353 </r>
       <r>    1.8389   -0.0354 </r>
       <r>    2.0102   -0.0066 </r>
       <r>    2.0109   -0.0066 </r>
       <r>    2.1671   -0.0002 </r>
       <r>    2.1692   -0.0002 </r>
       <r>    2.1734   -0.0002 </r>
       <r>    2.1739   -0.0002 </r>
       <r>    2.2800   -0.0000 </r>
       <r>    2.2818   -0.0000 </r>
       <r>    2.2874   -0.0000 </r>
       <r>    2.2891   -0.0000 </r>
       <r>    2.3988   -0.0000 </r>
       <r>    2.4000   -0.0000 </r>
       <r>    2.4012   -0.0000 </r>
       <r>    2.4016   -0.0000 </r>
       <r>    2.6188   -0.0000 </r>
       <r>    2.6205   -0.0000 </r>
       <r>    3.0104   -0.0000 </r>
       <r>    3.0108   -0.0000 </r>
       <r>    3.1866   -0.0000 </r>
       <r>    3.1884   -0.0000 </r>
       <r>    4.2054   -0.0000 </r>
      </set>
      <set comment="kpoint 4">
       <r>  -22.5507    1.0000 </r>
       <r>  -22.5500    1.0000 </r>
       <r>  -22.5346    1.0000 </r>
       <r>  -22.5338    1.0000 </r>
       <r>  -22.4038    1.0000 </r>
       <r>  -22.4032    1.0000 </r>
       <r>  -22.4009    1.0000 </r>
       <r>  -22.4006    1.0000 </r>
       <r>  -22.3872    1.0000 </r>
       <r>  -22.3865    1.0000 </r>
       <r>  -22.3708    1.0000 </r>
       <r>  -22.3705    1.0000 </r>
       <r>  -22.3480    1.0000 </r>
       <r>  -22.3477    1.0000 </r>
       <r>  -22.2946    1.0000 </r>
       <r>  -22.2945    1.0000 </r>
       <r>  -22.2585    1.0000 </r>
       <r>  -22.2585    1.0000 </r>
       <r>  -22.2163    1.0000 </r>
       <r>  -22.2162    1.0000 </r>
       <r>  -21.3552    1.0000 </r>
       <r>  -21.3550    1.0000 </r>
       <r>  -16.5429    1.0000 </r>
       <r>  -16.5424    1.0000 </r>
       <r>   -5.8252    1.0000 </r>
       <r>   -5.8246    1.0000 </r>
       <r>   -5.7341    1.0000 </r>
       <r>   -5.7337    1.0000 </r>
       <r>   -5.5940    1.0000 </r>
       <r>   -5.5934    1.0000 </r>
       <r>   -5.3286    1.0000 </r>
       <r>   -5.3280    1.0000 </r>
       <r>   -5.2191    1.0000 </r>
       <r>   -5.2188    1.0000 </r>
       <r>   -5.1734    1.0000 </r>
       <r>   -5.1730    1.0000 </r>
       <r>   -5.0558    1.0000 </r>
       <r>   -5.0553    1.0000 </r>
       <r>   -5.0089    1.0000 </r>
       <r>   -5.0086    1.0000 </r>
       <r>   -4.9168    1.0000 </r>
       <r>   -4.9166    1.0000 </r>
       <r>   -4.8510    1.0000 </r>
       <r>   -4.8505    1.0000 </r>
       <r>   -4.7975    1.0000 </r>
       <r>   -4.7974    1.0000 </r>
       <r>   -4.7608    1.0000 </r>
       <r>   -4.7603    1.0000 </r>
       <r>   -4.7009    1.0000 </r>
       <r>   -4.7007    1.0000 </r>
       <r>   -4.4166    1.0000 </r>
       <r>   -4.4163    1.0000 </r>
       <r>   -4.3650    1.0000 </r>
       <r>   -4.3643    1.0000 </r>
       <r>   -4.3540    1.0000 </r>
       <r>   -4.3533    1.0000 </r>
       <r>   -4.3396    1.0000 </r>
       <r>   -4.3393    1.0000 </r>
       <r>   -4.3339    1.0000 </r>
       <r>   -4.3337    1.0000 </r>
       <r>   -4.2983    1.0000 </r>
       <r>   -4.2983    1.0000 </r>
       <r>   -4.2534    1.0000 </r>
       <r>   -4.2531    1.0000 </r>
       <r>   -4.0164    1.0000 </r>
       <r>   -4.0163    1.0000 </r>
       <r>   -3.8280    1.0000 </r>
       <r>   -3.8279    1.0000 </r>
       <r>   -3.6914    1.0000 </r>
       <r>   -3.6914    1.0000 </r>
       <r>   -3.5325    1.0000 </r>
       <r>   -3.5318    1.0000 </r>
       <r>   -3.4136    1.0000 </r>
       <r>   -3.4135    1.0000 </r>
       <r>   -3.3061    1.0000 </r>
       <r>   -3.3055    1.0000 </r>
       <r>   -3.2947    1.0000 </r>
       <r>   -3.2941    1.0000 </r>
       <r>   -3.2078    1.0000 </r>
       <r>   -3.2074    1.0000 </r>
       <r>   -3.1163    1.0000 </r>
       <r>   -3.1160    1.0000 </r>
       <r>   -3.1134    1.0000 </r>
       <r>   -3.1127    1.0000 </r>
       <r>   -3.0503    1.0000 </r>
       <r>   -3.0501    1.0000 </r>
       <r>   -3.0175    1.0000 </r>
       <r>   -3.0174    1.0000 </r>
       <r>   -2.4804    1.0000 </r>
       <r>   -2.4804    1.0000 </r>
       <r>   -2.3776    1.0000 </r>
       <r>   -2.3774    1.0000 </r>
       <r>   -2.3361    1.0000 </r>
       <r>   -2.3359    1.0000 </r>
       <r>   -1.6879    1.0000 </r>
       <r>   -1.6873    1.0000 </r>
       <r>    0.9393    1.0000 </r>
       <r>    0.9402    1.0000 </r>
       <r>    1.0024    1.0001 </r>
       <r>    1.0025    1.0001 </r>
       <r>    1.0431    1.0003 </r>
       <r>    1.0443    1.0003 </r>
       <r>    1.1847    1.0063 </r>
       <r>    1.1852    1.0064 </r>
       <r>    1.2052    1.0088 </r>
       <r>    1.2056    1.0089 </r>
       <r>    1.2664    1.0202 </r>
       <r>    1.2666    1.0203 </r>
       <r>    1.2844    1.0244 </r>
       <r>    1.2851    1.0245 </r>
       <r>    1.3040    1.0288 </r>
       <r>    1.3042    1.0288 </r>
       <r>    1.3374    1.0345 </r>
       <r>    1.3381    1.0346 </r>
       <r>    1.3880    1.0299 </r>
       <r>    1.3884    1.0297 </r>
       <r>    1.3993    1.0249 </r>
       <r>    1.3998    1.0246 </r>
       <r>    1.4086    1.0193 </r>
       <r>    1.4098    1.0185 </r>
       <r>    1.4188    1.0114 </r>
       <r>    1.4200    1.0104 </r>
       <r>    1.4257    1.0050 </r>
       <r>    1.4263    1.0044 </r>
       <r>    1.4336    0.9965 </r>
       <r>    1.4340    0.9960 </r>
       <r>    1.4568    0.9634 </r>
       <r>    1.4569    0.9632 </r>
       <r>    1.5563    0.6756 </r>
       <r>    1.5568    0.6739 </r>
       <r>    1.5781    0.5874 </r>
       <r>    1.5784    0.5862 </r>
       <r>    1.6973    0.1343 </r>
       <r>    1.6982    0.1316 </r>
       <r>    1.7473    0.0262 </r>
       <r>    1.7490    0.0237 </r>
       <r>    1.7911   -0.0206 </r>
       <r>    1.7927   -0.0216 </r>
       <r>    1.8684   -0.0335 </r>
       <r>    1.8686   -0.0335 </r>
       <r>    1.9194   -0.0229 </r>
       <r>    1.9205   -0.0227 </r>
       <r>    1.9306   -0.0204 </r>
       <r>    1.9314   -0.0202 </r>
       <r>    2.2389   -0.0000 </r>
       <r>    2.2396   -0.0000 </r>
       <r>    2.3125   -0.0000 </r>
       <r>    2.3146   -0.0000 </r>
       <r>    2.3399   -0.0000 </r>
       <r>    2.3405   -0.0000 </r>
       <r>    2.3439   -0.0000 </r>
       <r>    2.3447   -0.0000 </r>
       <r>    2.4552   -0.0000 </r>
       <r>    2.4561   -0.0000 </r>
       <r>    2.6749   -0.0000 </r>
       <r>    2.6751   -0.0000 </r>
       <r>    8.5781    0.0000 </r>
      </set>
      <set comment="kpoint 5">
       <r>  -22.7250    1.0000 </r>
       <r>  -22.7244    1.0000 </r>
       <r>  -22.7092    1.0000 </r>
       <r>  -22.7086    1.0000 </r>
       <r>  -22.5778    1.0000 </r>
       <r>  -22.5776    1.0000 </r>
       <r>  -22.5581    1.0000 </r>
       <r>  -22.5579    1.0000 </r>
       <r>  -22.4377    1.0000 </r>
       <r>  -22.4376    1.0000 </r>
       <r>  -22.3191    1.0000 </r>
       <r>  -22.3187    1.0000 </r>
       <r>  -22.3142    1.0000 </r>
       <r>  -22.3140    1.0000 </r>
       <r>  -22.2857    1.0000 </r>
       <r>  -22.2855    1.0000 </r>
       <r>  -22.2849    1.0000 </r>
       <r>  -22.2848    1.0000 </r>
       <r>  -22.2392    1.0000 </r>
       <r>  -22.2391    1.0000 </r>
       <r>  -21.4007    1.0000 </r>
       <r>  -21.4006    1.0000 </r>
       <r>  -16.7128    1.0000 </r>
       <r>  -16.7123    1.0000 </r>
       <r>   -5.9340    1.0000 </r>
       <r>   -5.9337    1.0000 </r>
       <r>   -5.7589    1.0000 </r>
       <r>   -5.7583    1.0000 </r>
       <r>   -5.6189    1.0000 </r>
       <r>   -5.6188    1.0000 </r>
       <r>   -5.4392    1.0000 </r>
       <r>   -5.4388    1.0000 </r>
       <r>   -5.3985    1.0000 </r>
       <r>   -5.3978    1.0000 </r>
       <r>   -4.7090    1.0000 </r>
       <r>   -4.7086    1.0000 </r>
       <r>   -4.6192    1.0000 </r>
       <r>   -4.6180    1.0000 </r>
       <r>   -4.5805    1.0000 </r>
       <r>   -4.5800    1.0000 </r>
       <r>   -4.5344    1.0000 </r>
       <r>   -4.5340    1.0000 </r>
       <r>   -4.4472    1.0000 </r>
       <r>   -4.4470    1.0000 </r>
       <r>   -4.4462    1.0000 </r>
       <r>   -4.4456    1.0000 </r>
       <r>   -4.4455    1.0000 </r>
       <r>   -4.4445    1.0000 </r>
       <r>   -4.3847    1.0000 </r>
       <r>   -4.3845    1.0000 </r>
       <r>   -4.2826    1.0000 </r>
       <r>   -4.2826    1.0000 </r>
       <r>   -4.2557    1.0000 </r>
       <r>   -4.2556    1.0000 </r>
       <r>   -4.2363    1.0000 </r>
       <r>   -4.2360    1.0000 </r>
       <r>   -4.0810    1.0000 </r>
       <r>   -4.0809    1.0000 </r>
       <r>   -4.0802    1.0000 </r>
       <r>   -4.0798    1.0000 </r>
       <r>   -3.9972    1.0000 </r>
       <r>   -3.9968    1.0000 </r>
       <r>   -3.8690    1.0000 </r>
       <r>   -3.8685    1.0000 </r>
       <r>   -3.8612    1.0000 </r>
       <r>   -3.8610    1.0000 </r>
       <r>   -3.7374    1.0000 </r>
       <r>   -3.7373    1.0000 </r>
       <r>   -3.7002    1.0000 </r>
       <r>   -3.7001    1.0000 </r>
       <r>   -3.6001    1.0000 </r>
       <r>   -3.5998    1.0000 </r>
       <r>   -3.5668    1.0000 </r>
       <r>   -3.5666    1.0000 </r>
       <r>   -3.5409    1.0000 </r>
       <r>   -3.5409    1.0000 </r>
       <r>   -3.3196    1.0000 </r>
       <r>   -3.3196    1.0000 </r>
       <r>   -3.2396    1.0000 </r>
       <r>   -3.2395    1.0000 </r>
       <r>   -3.0821    1.0000 </r>
       <r>   -3.0820    1.0000 </r>
       <r>   -2.9975    1.0000 </r>
       <r>   -2.9974    1.0000 </r>
       <r>   -2.8964    1.0000 </r>
       <r>   -2.8962    1.0000 </r>
       <r>   -2.8593    1.0000 </r>
       <r>   -2.8591    1.0000 </r>
       <r>   -2.8003    1.0000 </r>
       <r>   -2.8001    1.0000 </r>
       <r>   -2.4664    1.0000 </r>
       <r>   -2.4663    1.0000 </r>
       <r>   -2.2476    1.0000 </r>
       <r>   -2.2474    1.0000 </r>
       <r>   -1.4412    1.0000 </r>
       <r>   -1.4409    1.0000 </r>
       <r>    0.7836    1.0000 </r>
       <r>    0.7845    1.0000 </r>
       <r>    0.9381    1.0000 </r>
       <r>    0.9390    1.0000 </r>
       <r>    1.0399    1.0003 </r>
       <r>    1.0413    1.0003 </r>
       <r>    1.0590    1.0005 </r>
       <r>    1.0591    1.0005 </r>
       <r>    1.1111    1.0015 </r>
       <r>    1.1113    1.0015 </r>
       <r>    1.1145    1.0016 </r>
       <r>    1.1146    1.0016 </r>
       <r>    1.1987    1.0080 </r>
       <r>    1.1992    1.0080 </r>
       <r>    1.2080    1.0092 </r>
       <r>    1.2085    1.0093 </r>
       <r>    1.2438    1.0154 </r>
       <r>    1.2445    1.0155 </r>
       <r>    1.2763    1.0225 </r>
       <r>    1.2768    1.0226 </r>
       <r>    1.3621    1.0352 </r>
       <r>    1.3625    1.0352 </r>
       <r>    1.3689    1.0345 </r>
       <r>    1.3703    1.0343 </r>
       <r>    1.3763    1.0332 </r>
       <r>    1.3763    1.0332 </r>
       <r>    1.3783    1.0328 </r>
       <r>    1.3789    1.0326 </r>
       <r>    1.3867    1.0303 </r>
       <r>    1.3871    1.0302 </r>
       <r>    1.5236    0.7947 </r>
       <r>    1.5240    0.7933 </r>
       <r>    1.5265    0.7850 </r>
       <r>    1.5266    0.7846 </r>
       <r>    1.6414    0.3244 </r>
       <r>    1.6417    0.3234 </r>
       <r>    1.7521    0.0192 </r>
       <r>    1.7528    0.0182 </r>
       <r>    2.0652   -0.0024 </r>
       <r>    2.0658   -0.0023 </r>
       <r>    2.0685   -0.0022 </r>
       <r>    2.0696   -0.0022 </r>
       <r>    2.1869   -0.0001 </r>
       <r>    2.1889   -0.0001 </r>
       <r>    2.2349   -0.0000 </r>
       <r>    2.2370   -0.0000 </r>
       <r>    2.2447   -0.0000 </r>
       <r>    2.2466   -0.0000 </r>
       <r>    2.2470   -0.0000 </r>
       <r>    2.2473   -0.0000 </r>
       <r>    2.3134   -0.0000 </r>
       <r>    2.3152   -0.0000 </r>
       <r>    2.4273   -0.0000 </r>
       <r>    2.4283   -0.0000 </r>
       <r>    2.4793   -0.0000 </r>
       <r>    2.4806   -0.0000 </r>
       <r>    2.7275   -0.0000 </r>
       <r>    2.7277   -0.0000 </r>
       <r>    3.0767   -0.0000 </r>
       <r>    3.0770   -0.0000 </r>
       <r>    5.4547   -0.0000 </r>
      </set>
      <set comment="kpoint 6">
       <r>  -22.5021    1.0000 </r>
       <r>  -22.5015    1.0000 </r>
       <r>  -22.5015    1.0000 </r>
       <r>  -22.5001    1.0000 </r>
       <r>  -22.4407    1.0000 </r>
       <r>  -22.4401    1.0000 </r>
       <r>  -22.4401    1.0000 </r>
       <r>  -22.4386    1.0000 </r>
       <r>  -22.3948    1.0000 </r>
       <r>  -22.3946    1.0000 </r>
       <r>  -22.3746    1.0000 </r>
       <r>  -22.3742    1.0000 </r>
       <r>  -22.3510    1.0000 </r>
       <r>  -22.3509    1.0000 </r>
       <r>  -22.2907    1.0000 </r>
       <r>  -22.2907    1.0000 </r>
       <r>  -22.2625    1.0000 </r>
       <r>  -22.2624    1.0000 </r>
       <r>  -22.2227    1.0000 </r>
       <r>  -22.2226    1.0000 </r>
       <r>  -21.3555    1.0000 </r>
       <r>  -21.3554    1.0000 </r>
       <r>  -16.5479    1.0000 </r>
       <r>  -16.5475    1.0000 </r>
       <r>   -5.6276    1.0000 </r>
       <r>   -5.6271    1.0000 </r>
       <r>   -5.5190    1.0000 </r>
       <r>   -5.5183    1.0000 </r>
       <r>   -5.3797    1.0000 </r>
       <r>   -5.3795    1.0000 </r>
       <r>   -5.3559    1.0000 </r>
       <r>   -5.3557    1.0000 </r>
       <r>   -5.2952    1.0000 </r>
       <r>   -5.2951    1.0000 </r>
       <r>   -5.2391    1.0000 </r>
       <r>   -5.2388    1.0000 </r>
       <r>   -5.0694    1.0000 </r>
       <r>   -5.0694    1.0000 </r>
       <r>   -5.0684    1.0000 </r>
       <r>   -5.0678    1.0000 </r>
       <r>   -5.0044    1.0000 </r>
       <r>   -5.0039    1.0000 </r>
       <r>   -4.8996    1.0000 </r>
       <r>   -4.8995    1.0000 </r>
       <r>   -4.8015    1.0000 </r>
       <r>   -4.8015    1.0000 </r>
       <r>   -4.7223    1.0000 </r>
       <r>   -4.7221    1.0000 </r>
       <r>   -4.6593    1.0000 </r>
       <r>   -4.6585    1.0000 </r>
       <r>   -4.5725    1.0000 </r>
       <r>   -4.5724    1.0000 </r>
       <r>   -4.5547    1.0000 </r>
       <r>   -4.5542    1.0000 </r>
       <r>   -4.4245    1.0000 </r>
       <r>   -4.4242    1.0000 </r>
       <r>   -4.3662    1.0000 </r>
       <r>   -4.3661    1.0000 </r>
       <r>   -4.2787    1.0000 </r>
       <r>   -4.2784    1.0000 </r>
       <r>   -4.2615    1.0000 </r>
       <r>   -4.2613    1.0000 </r>
       <r>   -4.2587    1.0000 </r>
       <r>   -4.2584    1.0000 </r>
       <r>   -4.0932    1.0000 </r>
       <r>   -4.0930    1.0000 </r>
       <r>   -3.7428    1.0000 </r>
       <r>   -3.7427    1.0000 </r>
       <r>   -3.4656    1.0000 </r>
       <r>   -3.4654    1.0000 </r>
       <r>   -3.4105    1.0000 </r>
       <r>   -3.4097    1.0000 </r>
       <r>   -3.3484    1.0000 </r>
       <r>   -3.3477    1.0000 </r>
       <r>   -3.3310    1.0000 </r>
       <r>   -3.3310    1.0000 </r>
       <r>   -3.2545    1.0000 </r>
       <r>   -3.2543    1.0000 </r>
       <r>   -3.2444    1.0000 </r>
       <r>   -3.2442    1.0000 </r>
       <r>   -3.1551    1.0000 </r>
       <r>   -3.1543    1.0000 </r>
       <r>   -3.1392    1.0000 </r>
       <r>   -3.1384    1.0000 </r>
       <r>   -3.0664    1.0000 </r>
       <r>   -3.0662    1.0000 </r>
       <r>   -3.0060    1.0000 </r>
       <r>   -3.0059    1.0000 </r>
       <r>   -2.7268    1.0000 </r>
       <r>   -2.7265    1.0000 </r>
       <r>   -2.6025    1.0000 </r>
       <r>   -2.6025    1.0000 </r>
       <r>   -2.3988    1.0000 </r>
       <r>   -2.3987    1.0000 </r>
       <r>   -1.5760    1.0000 </r>
       <r>   -1.5755    1.0000 </r>
       <r>    0.8723    1.0000 </r>
       <r>    0.8735    1.0000 </r>
       <r>    0.9464    1.0000 </r>
       <r>    0.9473    1.0000 </r>
       <r>    0.9816    1.0001 </r>
       <r>    0.9817    1.0001 </r>
       <r>    1.0272    1.0002 </r>
       <r>    1.0279    1.0002 </r>
       <r>    1.0527    1.0004 </r>
       <r>    1.0534    1.0004 </r>
       <r>    1.1275    1.0021 </r>
       <r>    1.1279    1.0022 </r>
       <r>    1.2192    1.0110 </r>
       <r>    1.2194    1.0110 </r>
       <r>    1.3038    1.0287 </r>
       <r>    1.3050    1.0290 </r>
       <r>    1.3925    1.0281 </r>
       <r>    1.3925    1.0281 </r>
       <r>    1.4081    1.0196 </r>
       <r>    1.4082    1.0196 </r>
       <r>    1.4124    1.0166 </r>
       <r>    1.4136    1.0157 </r>
       <r>    1.4164    1.0135 </r>
       <r>    1.4173    1.0127 </r>
       <r>    1.4182    1.0120 </r>
       <r>    1.4190    1.0113 </r>
       <r>    1.4436    0.9837 </r>
       <r>    1.4441    0.9831 </r>
       <r>    1.4816    0.9138 </r>
       <r>    1.4818    0.9134 </r>
       <r>    1.5039    0.8560 </r>
       <r>    1.5041    0.8554 </r>
       <r>    1.5401    0.7371 </r>
       <r>    1.5403    0.7363 </r>
       <r>    1.5783    0.5863 </r>
       <r>    1.5790    0.5836 </r>
       <r>    1.6141    0.4359 </r>
       <r>    1.6152    0.4312 </r>
       <r>    1.6217    0.4039 </r>
       <r>    1.6226    0.4002 </r>
       <r>    1.6409    0.3262 </r>
       <r>    1.6422    0.3213 </r>
       <r>    1.6594    0.2566 </r>
       <r>    1.6608    0.2515 </r>
       <r>    1.8112   -0.0304 </r>
       <r>    1.8123   -0.0308 </r>
       <r>    1.9031   -0.0267 </r>
       <r>    1.9053   -0.0262 </r>
       <r>    2.2919   -0.0000 </r>
       <r>    2.2929   -0.0000 </r>
       <r>    2.6261   -0.0000 </r>
       <r>    2.6268   -0.0000 </r>
       <r>    2.6419   -0.0000 </r>
       <r>    2.6420   -0.0000 </r>
       <r>    2.6870   -0.0000 </r>
       <r>    2.6891   -0.0000 </r>
       <r>    2.7091   -0.0000 </r>
       <r>    2.7116   -0.0000 </r>
       <r>    2.7494   -0.0000 </r>
       <r>    2.7500   -0.0000 </r>
       <r>    8.9505    0.0000 </r>
      </set>
      <set comment="kpoint 7">
       <r>  -22.7235    1.0000 </r>
       <r>  -22.7229    1.0000 </r>
       <r>  -22.7102    1.0000 </r>
       <r>  -22.7096    1.0000 </r>
       <r>  -22.5687    1.0000 </r>
       <r>  -22.5684    1.0000 </r>
       <r>  -22.5666    1.0000 </r>
       <r>  -22.5662    1.0000 </r>
       <r>  -22.4372    1.0000 </r>
       <r>  -22.4371    1.0000 </r>
       <r>  -22.3200    1.0000 </r>
       <r>  -22.3196    1.0000 </r>
       <r>  -22.3111    1.0000 </r>
       <r>  -22.3109    1.0000 </r>
       <r>  -22.2915    1.0000 </r>
       <r>  -22.2914    1.0000 </r>
       <r>  -22.2789    1.0000 </r>
       <r>  -22.2786    1.0000 </r>
       <r>  -22.2392    1.0000 </r>
       <r>  -22.2392    1.0000 </r>
       <r>  -21.4003    1.0000 </r>
       <r>  -21.4002    1.0000 </r>
       <r>  -16.7127    1.0000 </r>
       <r>  -16.7122    1.0000 </r>
       <r>   -5.8999    1.0000 </r>
       <r>   -5.8996    1.0000 </r>
       <r>   -5.8356    1.0000 </r>
       <r>   -5.8353    1.0000 </r>
       <r>   -5.5367    1.0000 </r>
       <r>   -5.5360    1.0000 </r>
       <r>   -5.4754    1.0000 </r>
       <r>   -5.4753    1.0000 </r>
       <r>   -5.3947    1.0000 </r>
       <r>   -5.3940    1.0000 </r>
       <r>   -4.7183    1.0000 </r>
       <r>   -4.7179    1.0000 </r>
       <r>   -4.6163    1.0000 </r>
       <r>   -4.6151    1.0000 </r>
       <r>   -4.5992    1.0000 </r>
       <r>   -4.5986    1.0000 </r>
       <r>   -4.5216    1.0000 </r>
       <r>   -4.5212    1.0000 </r>
       <r>   -4.4467    1.0000 </r>
       <r>   -4.4467    1.0000 </r>
       <r>   -4.4461    1.0000 </r>
       <r>   -4.4454    1.0000 </r>
       <r>   -4.4446    1.0000 </r>
       <r>   -4.4437    1.0000 </r>
       <r>   -4.3807    1.0000 </r>
       <r>   -4.3805    1.0000 </r>
       <r>   -4.2774    1.0000 </r>
       <r>   -4.2772    1.0000 </r>
       <r>   -4.2654    1.0000 </r>
       <r>   -4.2651    1.0000 </r>
       <r>   -4.2294    1.0000 </r>
       <r>   -4.2291    1.0000 </r>
       <r>   -4.1112    1.0000 </r>
       <r>   -4.1110    1.0000 </r>
       <r>   -4.0275    1.0000 </r>
       <r>   -4.0273    1.0000 </r>
       <r>   -4.0019    1.0000 </r>
       <r>   -4.0014    1.0000 </r>
       <r>   -3.8593    1.0000 </r>
       <r>   -3.8588    1.0000 </r>
       <r>   -3.8395    1.0000 </r>
       <r>   -3.8392    1.0000 </r>
       <r>   -3.7845    1.0000 </r>
       <r>   -3.7844    1.0000 </r>
       <r>   -3.7458    1.0000 </r>
       <r>   -3.7457    1.0000 </r>
       <r>   -3.5898    1.0000 </r>
       <r>   -3.5896    1.0000 </r>
       <r>   -3.5727    1.0000 </r>
       <r>   -3.5725    1.0000 </r>
       <r>   -3.4218    1.0000 </r>
       <r>   -3.4216    1.0000 </r>
       <r>   -3.3912    1.0000 </r>
       <r>   -3.3911    1.0000 </r>
       <r>   -3.2396    1.0000 </r>
       <r>   -3.2395    1.0000 </r>
       <r>   -3.0969    1.0000 </r>
       <r>   -3.0968    1.0000 </r>
       <r>   -2.9631    1.0000 </r>
       <r>   -2.9628    1.0000 </r>
       <r>   -2.9277    1.0000 </r>
       <r>   -2.9273    1.0000 </r>
       <r>   -2.8458    1.0000 </r>
       <r>   -2.8456    1.0000 </r>
       <r>   -2.8028    1.0000 </r>
       <r>   -2.8026    1.0000 </r>
       <r>   -2.4657    1.0000 </r>
       <r>   -2.4656    1.0000 </r>
       <r>   -2.2478    1.0000 </r>
       <r>   -2.2476    1.0000 </r>
       <r>   -1.4414    1.0000 </r>
       <r>   -1.4410    1.0000 </r>
       <r>    0.7841    1.0000 </r>
       <r>    0.7850    1.0000 </r>
       <r>    0.9697    1.0000 </r>
       <r>    0.9714    1.0000 </r>
       <r>    0.9894    1.0001 </r>
       <r>    0.9897    1.0001 </r>
       <r>    1.0784    1.0007 </r>
       <r>    1.0791    1.0007 </r>
       <r>    1.1115    1.0015 </r>
       <r>    1.1118    1.0015 </r>
       <r>    1.1144    1.0016 </r>
       <r>    1.1148    1.0016 </r>
       <r>    1.1923    1.0072 </r>
       <r>    1.1928    1.0072 </r>
       <r>    1.2080    1.0092 </r>
       <r>    1.2086    1.0093 </r>
       <r>    1.2433    1.0153 </r>
       <r>    1.2440    1.0154 </r>
       <r>    1.2823    1.0239 </r>
       <r>    1.2829    1.0240 </r>
       <r>    1.3596    1.0353 </r>
       <r>    1.3604    1.0353 </r>
       <r>    1.3622    1.0352 </r>
       <r>    1.3627    1.0351 </r>
       <r>    1.3688    1.0345 </r>
       <r>    1.3704    1.0343 </r>
       <r>    1.3787    1.0327 </r>
       <r>    1.3794    1.0325 </r>
       <r>    1.4117    1.0171 </r>
       <r>    1.4125    1.0165 </r>
       <r>    1.4882    0.8980 </r>
       <r>    1.4889    0.8962 </r>
       <r>    1.5577    0.6701 </r>
       <r>    1.5587    0.6661 </r>
       <r>    1.6332    0.3573 </r>
       <r>    1.6337    0.3552 </r>
       <r>    1.7730   -0.0060 </r>
       <r>    1.7740   -0.0069 </r>
       <r>    1.9536   -0.0155 </r>
       <r>    1.9551   -0.0152 </r>
       <r>    2.1685   -0.0002 </r>
       <r>    2.1706   -0.0002 </r>
       <r>    2.2079   -0.0001 </r>
       <r>    2.2094   -0.0001 </r>
       <r>    2.2446   -0.0000 </r>
       <r>    2.2465   -0.0000 </r>
       <r>    2.2468   -0.0000 </r>
       <r>    2.2472   -0.0000 </r>
       <r>    2.2799   -0.0000 </r>
       <r>    2.2819   -0.0000 </r>
       <r>    2.2874   -0.0000 </r>
       <r>    2.2892   -0.0000 </r>
       <r>    2.3434   -0.0000 </r>
       <r>    2.3456   -0.0000 </r>
       <r>    2.5185   -0.0000 </r>
       <r>    2.5200   -0.0000 </r>
       <r>    2.7252   -0.0000 </r>
       <r>    2.7255   -0.0000 </r>
       <r>    3.0770   -0.0000 </r>
       <r>    3.0773   -0.0000 </r>
       <r>    5.5076   -0.0000 </r>
      </set>
      <set comment="kpoint 8">
       <r>  -22.5018    1.0000 </r>
       <r>  -22.5012    1.0000 </r>
       <r>  -22.5010    1.0000 </r>
       <r>  -22.4996    1.0000 </r>
       <r>  -22.4400    1.0000 </r>
       <r>  -22.4397    1.0000 </r>
       <r>  -22.4395    1.0000 </r>
       <r>  -22.4381    1.0000 </r>
       <r>  -22.3916    1.0000 </r>
       <r>  -22.3915    1.0000 </r>
       <r>  -22.3780    1.0000 </r>
       <r>  -22.3777    1.0000 </r>
       <r>  -22.3481    1.0000 </r>
       <r>  -22.3479    1.0000 </r>
       <r>  -22.2935    1.0000 </r>
       <r>  -22.2935    1.0000 </r>
       <r>  -22.2599    1.0000 </r>
       <r>  -22.2598    1.0000 </r>
       <r>  -22.2226    1.0000 </r>
       <r>  -22.2225    1.0000 </r>
       <r>  -21.3550    1.0000 </r>
       <r>  -21.3549    1.0000 </r>
       <r>  -16.5478    1.0000 </r>
       <r>  -16.5473    1.0000 </r>
       <r>   -5.6091    1.0000 </r>
       <r>   -5.6085    1.0000 </r>
       <r>   -5.5477    1.0000 </r>
       <r>   -5.5471    1.0000 </r>
       <r>   -5.3805    1.0000 </r>
       <r>   -5.3804    1.0000 </r>
       <r>   -5.3556    1.0000 </r>
       <r>   -5.3554    1.0000 </r>
       <r>   -5.2848    1.0000 </r>
       <r>   -5.2846    1.0000 </r>
       <r>   -5.2411    1.0000 </r>
       <r>   -5.2408    1.0000 </r>
       <r>   -5.0769    1.0000 </r>
       <r>   -5.0767    1.0000 </r>
       <r>   -5.0570    1.0000 </r>
       <r>   -5.0564    1.0000 </r>
       <r>   -4.9586    1.0000 </r>
       <r>   -4.9586    1.0000 </r>
       <r>   -4.9259    1.0000 </r>
       <r>   -4.9258    1.0000 </r>
       <r>   -4.7964    1.0000 </r>
       <r>   -4.7963    1.0000 </r>
       <r>   -4.7771    1.0000 </r>
       <r>   -4.7769    1.0000 </r>
       <r>   -4.6621    1.0000 </r>
       <r>   -4.6614    1.0000 </r>
       <r>   -4.5501    1.0000 </r>
       <r>   -4.5496    1.0000 </r>
       <r>   -4.5352    1.0000 </r>
       <r>   -4.5351    1.0000 </r>
       <r>   -4.4371    1.0000 </r>
       <r>   -4.4368    1.0000 </r>
       <r>   -4.3306    1.0000 </r>
       <r>   -4.3305    1.0000 </r>
       <r>   -4.3050    1.0000 </r>
       <r>   -4.3049    1.0000 </r>
       <r>   -4.2638    1.0000 </r>
       <r>   -4.2633    1.0000 </r>
       <r>   -4.2553    1.0000 </r>
       <r>   -4.2551    1.0000 </r>
       <r>   -4.0920    1.0000 </r>
       <r>   -4.0918    1.0000 </r>
       <r>   -3.7422    1.0000 </r>
       <r>   -3.7422    1.0000 </r>
       <r>   -3.4655    1.0000 </r>
       <r>   -3.4653    1.0000 </r>
       <r>   -3.4134    1.0000 </r>
       <r>   -3.4127    1.0000 </r>
       <r>   -3.3434    1.0000 </r>
       <r>   -3.3426    1.0000 </r>
       <r>   -3.3243    1.0000 </r>
       <r>   -3.3242    1.0000 </r>
       <r>   -3.2869    1.0000 </r>
       <r>   -3.2866    1.0000 </r>
       <r>   -3.2147    1.0000 </r>
       <r>   -3.2146    1.0000 </r>
       <r>   -3.1545    1.0000 </r>
       <r>   -3.1537    1.0000 </r>
       <r>   -3.1394    1.0000 </r>
       <r>   -3.1386    1.0000 </r>
       <r>   -3.0748    1.0000 </r>
       <r>   -3.0746    1.0000 </r>
       <r>   -3.0023    1.0000 </r>
       <r>   -3.0023    1.0000 </r>
       <r>   -2.7269    1.0000 </r>
       <r>   -2.7265    1.0000 </r>
       <r>   -2.6022    1.0000 </r>
       <r>   -2.6021    1.0000 </r>
       <r>   -2.3976    1.0000 </r>
       <r>   -2.3975    1.0000 </r>
       <r>   -1.5755    1.0000 </r>
       <r>   -1.5751    1.0000 </r>
       <r>    0.8722    1.0000 </r>
       <r>    0.8734    1.0000 </r>
       <r>    0.9378    1.0000 </r>
       <r>    0.9386    1.0000 </r>
       <r>    0.9930    1.0001 </r>
       <r>    0.9933    1.0001 </r>
       <r>    1.0280    1.0002 </r>
       <r>    1.0287    1.0002 </r>
       <r>    1.0522    1.0004 </r>
       <r>    1.0529    1.0004 </r>
       <r>    1.1530    1.0036 </r>
       <r>    1.1534    1.0036 </r>
       <r>    1.1682    1.0047 </r>
       <r>    1.1686    1.0048 </r>
       <r>    1.3477    1.0353 </r>
       <r>    1.3485    1.0353 </r>
       <r>    1.3864    1.0304 </r>
       <r>    1.3865    1.0304 </r>
       <r>    1.4089    1.0191 </r>
       <r>    1.4094    1.0188 </r>
       <r>    1.4128    1.0163 </r>
       <r>    1.4140    1.0154 </r>
       <r>    1.4157    1.0140 </r>
       <r>    1.4173    1.0127 </r>
       <r>    1.4182    1.0120 </r>
       <r>    1.4194    1.0109 </r>
       <r>    1.4232    1.0074 </r>
       <r>    1.4236    1.0071 </r>
       <r>    1.4790    0.9198 </r>
       <r>    1.4792    0.9192 </r>
       <r>    1.5038    0.8562 </r>
       <r>    1.5040    0.8556 </r>
       <r>    1.5410    0.7339 </r>
       <r>    1.5413    0.7329 </r>
       <r>    1.5779    0.5881 </r>
       <r>    1.5785    0.5855 </r>
       <r>    1.6138    0.4371 </r>
       <r>    1.6147    0.4331 </r>
       <r>    1.6148    0.4326 </r>
       <r>    1.6151    0.4315 </r>
       <r>    1.6222    0.4021 </r>
       <r>    1.6225    0.4006 </r>
       <r>    1.7594    0.0092 </r>
       <r>    1.7611    0.0072 </r>
       <r>    1.8082   -0.0293 </r>
       <r>    1.8099   -0.0299 </r>
       <r>    1.8116   -0.0305 </r>
       <r>    1.8126   -0.0309 </r>
       <r>    2.4163   -0.0000 </r>
       <r>    2.4166   -0.0000 </r>
       <r>    2.4620   -0.0000 </r>
       <r>    2.4623   -0.0000 </r>
       <r>    2.6888   -0.0000 </r>
       <r>    2.6908   -0.0000 </r>
       <r>    2.7067   -0.0000 </r>
       <r>    2.7091   -0.0000 </r>
       <r>    2.7116   -0.0000 </r>
       <r>    2.7119   -0.0000 </r>
       <r>    2.7498   -0.0000 </r>
       <r>    2.7505   -0.0000 </r>
       <r>    9.1004    0.0000 </r>
      </set>
     </set>
    </set>
   </array>
  </eigenvalues>
  <separator name="orbital magnetization" >
   <v name="MAGDIPOLOUT">      0.00000000      0.00000000      0.00000000</v>
  </separator>
 </calculation>
 <structure name="finalpos" >
  <crystal>
   <varray name="basis" >
    <v>       3.25262800       0.00000000       0.00000000 </v>
    <v>       0.00000000      20.54938400       0.00000000 </v>
    <v>       0.00000000       0.00000000       6.79221100 </v>
   </varray>
   <i name="volume">    453.98799923 </i>
   <varray name="rec_basis" >
    <v>       0.30744370       0.00000000       0.00000000 </v>
    <v>       0.00000000       0.04866326       0.00000000 </v>
    <v>       0.00000000       0.00000000       0.14722746 </v>
   </varray>
  </crystal>
  <varray name="positions" >
   <v>       0.00000000       0.16671900       0.50139100 </v>
   <v>       0.00000000       0.83328100       0.50139100 </v>
   <v>       0.00000000       0.66671900       0.00139100 </v>
   <v>       0.00000000       0.33328100       0.00139100 </v>
   <v>       0.50000000       0.16602100       0.00000400 </v>
   <v>       0.50000000       0.83397900       0.00000400 </v>
   <v>       0.50000000       0.66602100       0.50000400 </v>
   <v>       0.50000000       0.33397900       0.50000400 </v>
   <v>       0.00000000       0.00000000       0.01216200 </v>
   <v>       0.00000000       0.50000000       0.51216200 </v>
   <v>       0.50000000       0.00000000       0.47240000 </v>
   <v>       0.50000000       0.50000000       0.97240000 </v>
   <v>       0.00000000       0.00000000       0.31436200 </v>
   <v>       0.00000000       0.50000000       0.81436200 </v>
   <v>       0.00000000       0.16816900       0.20329900 </v>
   <v>       0.00000000       0.83183100       0.20329900 </v>
   <v>       0.00000000       0.66816900       0.70329900 </v>
   <v>       0.00000000       0.33183100       0.70329900 </v>
   <v>       0.00000000       0.16838200       0.79934600 </v>
   <v>       0.00000000       0.83161800       0.79934600 </v>
   <v>       0.00000000       0.66838200       0.29934600 </v>
   <v>       0.00000000       0.33161800       0.29934600 </v>
   <v>       0.50000000       0.06837200       0.99633700 </v>
   <v>       0.50000000       0.93162800       0.99633700 </v>
   <v>       0.50000000       0.56837200       0.49633700 </v>
   <v>       0.50000000       0.43162800       0.49633700 </v>
   <v>       0.50000000       0.09818400       0.50567900 </v>
   <v>       0.50000000       0.90181600       0.50567900 </v>
   <v>       0.50000000       0.59818400       0.00567900 </v>
   <v>       0.50000000       0.40181600       0.00567900 </v>
   <v>       0.50000000       0.23406000       0.50152500 </v>
   <v>       0.50000000       0.76594000       0.50152500 </v>
   <v>       0.50000000       0.73406000       0.00152500 </v>
   <v>       0.50000000       0.26594000       0.00152500 </v>
   <v>       0.00000000       0.00000000       0.69474100 </v>
   <v>       0.00000000       0.50000000       0.19474100 </v>
  </varray>
 </structure>
</modeling>
