<?xml version="1.0" encoding="ISO-8859-1"?>
<modeling>
 <generator>
  <i name="program" type="string">vasp </i>
  <i name="version" type="string">5.3.5  </i>
  <i name="subversion" type="string">31Mar14 (build Aug 29 2014 19:41:47) complex                          parallel </i>
  <i name="platform" type="string">LinuxIFC </i>
  <i name="date" type="string">2019 04 11 </i>
  <i name="time" type="string">15:14:18 </i>
 </generator>
 <incar>
  <i type="string" name="SYSTEM"> Fe4OF8_var_30</i>
  <i type="int" name="ISTART">     0</i>
  <i type="string" name="PREC">normal</i>
  <i type="string" name="ALGO"> VeryFast</i>
  <i type="int" name="ISPIN">     1</i>
  <i type="int" name="ICHARG">     2</i>
  <i type="int" name="NELM">   300</i>
  <i type="int" name="ISYM">     0</i>
  <i type="logical" name="LWAVE"> F  </i>
  <i type="int" name="NELM">   300</i>
 </incar>
 <kpoints>
  <generation param="Gamma">
   <v type="int" name="divisions">       1        1        1 </v>
   <v name="usershift">      0.00000000       0.00000000       0.00000000 </v>
   <v name="genvec1">      1.00000000       0.00000000       0.00000000 </v>
   <v name="genvec2">      0.00000000       1.00000000       0.00000000 </v>
   <v name="genvec3">     -0.00000000       0.00000000       1.00000000 </v>
   <v name="shift">      0.00000000       0.00000000       0.00000000 </v>
  </generation>
  <varray name="kpointlist" >
   <v>       0.00000000       0.00000000       0.00000000 </v>
  </varray>
  <varray name="weights" >
   <v>       1.00000000 </v>
  </varray>
 </kpoints>
 <parameters>
  <separator name="general" >
   <i type="string" name="SYSTEM">Fe4OF8_var_30</i>
   <i type="logical" name="LCOMPAT"> F  </i>
  </separator>
  <separator name="electronic" >
   <i type="string" name="PREC">normal</i>
   <i name="ENMAX">    400.00000000</i>
   <i name="ENAUG">    613.61400000</i>
   <i name="EDIFF">      0.00010000</i>
   <i type="int" name="IALGO">    48</i>
   <i type="int" name="IWAVPR">    10</i>
   <i type="int" name="NBANDS">   228</i>
   <i name="NELECT">    376.00000000</i>
   <i type="int" name="TURBO">     0</i>
   <i type="int" name="IRESTART">     0</i>
   <i type="int" name="NREBOOT">     0</i>
   <i type="int" name="NMIN">     0</i>
   <i name="EREF">      0.00000000</i>
   <separator name="electronic smearing" >
    <i type="int" name="ISMEAR">     1</i>
    <i name="SIGMA">      0.20000000</i>
    <i name="KSPACING">      0.50000000</i>
    <i type="logical" name="KGAMMA"> T  </i>
   </separator>
   <separator name="electronic projectors" >
    <i type="logical" name="LREAL"> F  </i>
    <v name="ROPT">      0.00000000      0.00000000      0.00000000</v>
    <i type="int" name="LMAXPAW">  -100</i>
    <i type="int" name="LMAXMIX">     2</i>
    <i type="logical" name="NLSPLINE"> F  </i>
   </separator>
   <separator name="electronic startup" >
    <i type="int" name="ISTART">     0</i>
    <i type="int" name="ICHARG">     2</i>
    <i type="int" name="INIWAV">     1</i>
   </separator>
   <separator name="electronic spin" >
    <i type="int" name="ISPIN">     1</i>
    <i type="logical" name="LNONCOLLINEAR"> F  </i>
    <v name="MAGMOM">      1.00000000      1.00000000      1.00000000      1.00000000      1.00000000      1.00000000      1.00000000      1.00000000      1.00000000      1.00000000      1.00000000      1.00000000      1.00000000      1.00000000      1.00000000      1.00000000      1.00000000      1.00000000      1.00000000      1.00000000
      1.00000000      1.00000000      1.00000000      1.00000000      1.00000000      1.00000000      1.00000000      1.00000000      1.00000000      1.00000000      1.00000000      1.00000000      1.00000000      1.00000000      1.00000000      1.00000000      1.00000000      1.00000000      1.00000000      1.00000000
      1.00000000      1.00000000      1.00000000      1.00000000      1.00000000      1.00000000      1.00000000      1.00000000      1.00000000      1.00000000      1.00000000      1.00000000</v>
    <i name="NUPDOWN">     -1.00000000</i>
    <i type="logical" name="LSORBIT"> F  </i>
    <v name="SAXIS">      0.00000000      0.00000000      1.00000000</v>
    <i type="logical" name="LSPIRAL"> F  </i>
    <v name="QSPIRAL">      0.00000000      0.00000000      0.00000000</v>
    <i type="logical" name="LZEROZ"> F  </i>
   </separator>
   <separator name="electronic exchange-correlation" >
    <i type="logical" name="LASPH"> F  </i>
    <i type="logical" name="LMETAGGA"> F  </i>
   </separator>
   <separator name="electronic convergence" >
    <i type="int" name="NELM">   300</i>
    <i type="int" name="NELMDL">   -12</i>
    <i type="int" name="NELMIN">     2</i>
    <i name="ENINI">    400.00000000</i>
    <separator name="electronic convergence detail" >
     <i type="logical" name="LDIAG"> T  </i>
     <i type="logical" name="LSUBROT"> F  </i>
     <i name="WEIMIN">      0.00000000</i>
     <i name="EBREAK">      0.00000011</i>
     <i name="DEPER">      0.30000000</i>
     <i type="int" name="NRMM">     4</i>
     <i name="TIME">      0.40000000</i>
    </separator>
   </separator>
   <separator name="electronic mixer" >
    <i name="AMIX">      0.40000000</i>
    <i name="BMIX">      1.00000000</i>
    <i name="AMIN">      0.10000000</i>
    <i name="AMIX_MAG">      1.60000000</i>
    <i name="BMIX_MAG">      1.00000000</i>
    <separator name="electronic mixer details" >
     <i type="int" name="IMIX">     4</i>
     <i type="int" name="MAXMIX">   -45</i>
     <i name="WC">    100.00000000</i>
     <i type="int" name="INIMIX">     1</i>
     <i type="int" name="MIXPRE">     1</i>
     <i type="int" name="MREMOVE">     5</i>
    </separator>
   </separator>
   <separator name="electronic dipolcorrection" >
    <i type="logical" name="LDIPOL"> F  </i>
    <i type="logical" name="LMONO"> F  </i>
    <i type="int" name="IDIPOL">     0</i>
    <i name="EPSILON">      1.00000000</i>
    <v name="DIPOL">   -100.00000000   -100.00000000   -100.00000000</v>
    <i name="EFIELD">      0.00000000</i>
   </separator>
  </separator>
  <separator name="grids" >
   <i type="int" name="NGX">    48</i>
   <i type="int" name="NGY">    28</i>
   <i type="int" name="NGZ">    80</i>
   <i type="int" name="NGXF">    96</i>
   <i type="int" name="NGYF">    56</i>
   <i type="int" name="NGZF">   160</i>
   <i type="logical" name="ADDGRID"> F  </i>
  </separator>
  <separator name="ionic" >
   <i type="int" name="NSW">     0</i>
   <i type="int" name="IBRION">    -1</i>
   <i type="int" name="ISIF">     2</i>
   <i name="PSTRESS">      0.00000000</i>
   <i name="EDIFFG">      0.00100000</i>
   <i type="int" name="NFREE">     0</i>
   <i name="POTIM">      0.50000000</i>
   <i name="SMASS">     -3.00000000</i>
   <i name="SCALEE">      1.00000000</i>
  </separator>
  <separator name="ionic md" >
   <i name="TEBEG">      0.00010000</i>
   <i name="TEEND">      0.00010000</i>
   <i type="int" name="NBLOCK">     1</i>
   <i type="int" name="KBLOCK">     1</i>
   <i type="int" name="NPACO">   256</i>
   <i name="APACO">     16.00000000</i>
  </separator>
  <separator name="symmetry" >
   <i type="int" name="ISYM">     0</i>
   <i name="SYMPREC">      0.00001000</i>
  </separator>
  <separator name="dos" >
   <i type="logical" name="LORBIT"> F  </i>
   <v name="RWIGS">     -1.00000000     -1.00000000     -1.00000000</v>
   <i type="int" name="NEDOS">   301</i>
   <i name="EMIN">     10.00000000</i>
   <i name="EMAX">    -10.00000000</i>
   <i name="EFERMI">      0.00000000</i>
  </separator>
  <separator name="writing" >
   <i type="int" name="NWRITE">     2</i>
   <i type="logical" name="LWAVE"> F  </i>
   <i type="logical" name="LCHARG"> T  </i>
   <i type="logical" name="LPARD"> F  </i>
   <i type="logical" name="LVTOT"> F  </i>
   <i type="logical" name="LVHAR"> F  </i>
   <i type="logical" name="LELF"> F  </i>
   <i type="logical" name="LOPTICS"> F  </i>
   <v name="STM">      0.00000000      0.00000000      0.00000000      0.00000000      0.00000000      0.00000000      0.00000000</v>
  </separator>
  <separator name="performance" >
   <i type="int" name="NPAR">     4</i>
   <i type="int" name="NSIM">     4</i>
   <i type="int" name="NBLK">    -1</i>
   <i type="logical" name="LPLANE"> T  </i>
   <i type="logical" name="LSCALAPACK"> T  </i>
   <i type="logical" name="LSCAAWARE"> F  </i>
   <i type="logical" name="LSCALU"> F  </i>
   <i type="logical" name="LASYNC"> F  </i>
   <i type="logical" name="LORBITALREAL"> F  </i>
  </separator>
  <separator name="miscellaneous" >
   <i type="int" name="IDIOT">     3</i>
   <i type="logical" name="LMUSIC"> F  </i>
   <v name="POMASS">     55.84700000     16.00000000     18.99800000</v>
   <v name="DARWINR">      0.00000000      0.00000000      0.00000000</v>
   <v name="DARWINV">      1.00000000      1.00000000      1.00000000</v>
   <i type="logical" name="LCORR"> T  </i>
  </separator>
  <i type="logical" name="GGA_COMPAT"> T  </i>
  <i type="logical" name="LBERRY"> F  </i>
  <i type="int" name="ICORELEVEL">     0</i>
  <i type="logical" name="LDAU"> F  </i>
  <i type="int" name="I_CONSTRAINED_M">     0</i>
  <separator name="electronic exchange-correlation" >
   <i type="string" name="GGA">--</i>
   <i type="int" name="VOSKOWN">     0</i>
   <i type="logical" name="LHFCALC"> F  </i>
   <i type="string" name="PRECFOCK"></i>
   <i type="logical" name="LSYMGRAD"> F  </i>
   <i type="logical" name="LHFONE"> F  </i>
   <i type="logical" name="LRHFCALC"> F  </i>
   <i type="logical" name="LTHOMAS"> F  </i>
   <i type="logical" name="LMODELHF"> F  </i>
   <i name="ENCUT4O">     -1.00000000</i>
   <i type="int" name="EXXOEP">     0</i>
   <i type="int" name="FOURORBIT">     0</i>
   <i name="AEXX">      0.00000000</i>
   <i name="HFALPHA">      0.00000000</i>
   <i name="MCALPHA">      0.00000000</i>
   <i name="ALDAX">      1.00000000</i>
   <i name="AGGAX">      1.00000000</i>
   <i name="ALDAC">      1.00000000</i>
   <i name="AGGAC">      1.00000000</i>
   <i type="int" name="NKREDX">     1</i>
   <i type="int" name="NKREDY">     1</i>
   <i type="int" name="NKREDZ">     1</i>
   <i type="logical" name="SHIFTRED"> F  </i>
   <i type="logical" name="ODDONLY"> F  </i>
   <i type="logical" name="EVENONLY"> F  </i>
   <i type="int" name="LMAXFOCK">     0</i>
   <i type="int" name="NMAXFOCKAE">     0</i>
   <i type="logical" name="LFOCKAEDFT"> F  </i>
   <i name="HFSCREEN">      0.00000000</i>
   <i name="HFSCREENC">      0.00000000</i>
   <i type="int" name="NBANDSGWLOW">     0</i>
  </separator>
  <separator name="vdW DFT" >
   <i type="logical" name="LUSE_VDW"> F  </i>
   <i name="Zab_VDW">     -0.84910000</i>
   <i name="PARAM1">      0.12340000</i>
   <i name="PARAM2">      1.00000000</i>
   <i name="PARAM3">      0.00000000</i>
  </separator>
  <separator name="model GW" >
   <i type="int" name="MODEL_GW">     0</i>
   <i name="MODEL_EPS0">      8.69476215</i>
   <i name="MODEL_ALPHA">      1.00000000</i>
  </separator>
  <separator name="linear response parameters" >
   <i type="logical" name="LEPSILON"> F  </i>
   <i type="logical" name="LRPA"> F  </i>
   <i type="logical" name="LNABLA"> F  </i>
   <i type="logical" name="LVEL"> F  </i>
   <i type="int" name="KINTER">     0</i>
   <i name="CSHIFT">      0.10000000</i>
   <i name="OMEGAMAX">     -1.00000000</i>
   <i name="DEG_THRESHOLD">      0.00200000</i>
  </separator>
  <separator name="orbital magnetization" >
   <i type="logical" name="NUCIND"> F  </i>
   <v name="MAGPOS">      0.00000000      0.00000000      0.00000000</v>
   <i type="logical" name="LNICSALL"> T  </i>
   <i type="logical" name="ORBITALMAG"> F  </i>
   <i type="logical" name="LMAGBLOCH"> F  </i>
   <i type="logical" name="LCHIMAG"> F  </i>
   <i type="logical" name="LGAUGE"> T  </i>
   <i type="int" name="MAGATOM">     0</i>
   <v name="MAGDIPOL">      0.00000000      0.00000000      0.00000000</v>
   <v name="AVECCONST">      0.00000000      0.00000000      0.00000000</v>
  </separator>
  <separator name="response functions" >
   <i type="logical" name="LADDER"> F  </i>
   <i type="logical" name="LFXC"> F  </i>
   <i type="logical" name="LHARTREE"> T  </i>
   <i type="int" name="IBSE">     0</i>
   <i type="logical" name="LTCTE"> F  </i>
   <i type="logical" name="LTETE"> F  </i>
   <i type="logical" name="LTRIPLET"> F  </i>
   <i type="logical" name="LFXCEPS"> F  </i>
   <i type="logical" name="LFXHEG"> F  </i>
   <i type="logical" name="L2ORDER"> F  </i>
   <i type="logical" name="LUSEW"> F  </i>
   <i name="ENCUTGW">     -2.00000000</i>
   <i name="ENCUTGWSOFT">     -2.00000000</i>
   <i name="ENCUTLF">     -1.00000000</i>
   <i type="int" name="LMAXMP2">    -1</i>
   <i name="SCISSOR">      0.00000000</i>
   <i type="int" name="NOMEGA">     0</i>
   <i type="int" name="NOMEGAR">     0</i>
   <i type="int" name="NBANDSGW">    -1</i>
   <i type="int" name="NBANDSO">    -1</i>
   <i type="int" name="NBANDSV">    -1</i>
   <i type="int" name="NELM">   300</i>
   <i type="int" name="DIM">     3</i>
   <i type="int" name="ANTIRES">     0</i>
   <i name="OMEGAMAX">    -30.00000000</i>
   <i name="OMEGAMIN">    -30.00000000</i>
   <i name="OMEGATL">   -200.00000000</i>
   <i type="int" name="OMEGAGRID">     0</i>
   <i name="CSHIFT">     -0.10000000</i>
   <i type="logical" name="SELFENERGY"> F  </i>
   <i type="logical" name="LSPECTRAL"> F  </i>
   <i type="logical" name="ODDONLYGW"> F  </i>
   <i type="logical" name="EVENONLYGW"> F  </i>
   <i type="int" name="NKREDLFX">     1</i>
   <i type="int" name="NKREDLFY">     1</i>
   <i type="int" name="NKREDLFZ">     1</i>
   <i type="int" name="MAXMEM">  1800</i>
   <i type="int" name="TELESCOPE">     0</i>
   <i type="int" name="TAUPAR">     1</i>
  </separator>
  <separator name="External order field" >
   <i name="OFIELD_KAPPA">      0.00000000</i>
   <v name="OFIELD_K">      0.00000000      0.00000000      0.00000000</v>
   <i name="OFIELD_Q6_NEAR">      0.00000000</i>
   <i name="OFIELD_Q6_FAR">      0.00000000</i>
   <i name="OFIELD_A">      0.00000000</i>
  </separator>
 </parameters>
 <atominfo>
  <atoms>      52 </atoms>
  <types>       3 </types>
  <array name="atoms" >
   <dimension dim="1">ion</dimension>
   <field type="string">element</field>
   <field type="int">atomtype</field>
   <set>
    <rc><c>Fe</c><c>   1</c></rc>
    <rc><c>Fe</c><c>   1</c></rc>
    <rc><c>Fe</c><c>   1</c></rc>
    <rc><c>Fe</c><c>   1</c></rc>
    <rc><c>Fe</c><c>   1</c></rc>
    <rc><c>Fe</c><c>   1</c></rc>
    <rc><c>Fe</c><c>   1</c></rc>
    <rc><c>Fe</c><c>   1</c></rc>
    <rc><c>Fe</c><c>   1</c></rc>
    <rc><c>Fe</c><c>   1</c></rc>
    <rc><c>Fe</c><c>   1</c></rc>
    <rc><c>Fe</c><c>   1</c></rc>
    <rc><c>Fe</c><c>   1</c></rc>
    <rc><c>Fe</c><c>   1</c></rc>
    <rc><c>Fe</c><c>   1</c></rc>
    <rc><c>Fe</c><c>   1</c></rc>
    <rc><c>O </c><c>   2</c></rc>
    <rc><c>O </c><c>   2</c></rc>
    <rc><c>O </c><c>   2</c></rc>
    <rc><c>O </c><c>   2</c></rc>
    <rc><c>F </c><c>   3</c></rc>
    <rc><c>F </c><c>   3</c></rc>
    <rc><c>F </c><c>   3</c></rc>
    <rc><c>F </c><c>   3</c></rc>
    <rc><c>F </c><c>   3</c></rc>
    <rc><c>F </c><c>   3</c></rc>
    <rc><c>F </c><c>   3</c></rc>
    <rc><c>F </c><c>   3</c></rc>
    <rc><c>F </c><c>   3</c></rc>
    <rc><c>F </c><c>   3</c></rc>
    <rc><c>F </c><c>   3</c></rc>
    <rc><c>F </c><c>   3</c></rc>
    <rc><c>F </c><c>   3</c></rc>
    <rc><c>F </c><c>   3</c></rc>
    <rc><c>F </c><c>   3</c></rc>
    <rc><c>F </c><c>   3</c></rc>
    <rc><c>F </c><c>   3</c></rc>
    <rc><c>F </c><c>   3</c></rc>
    <rc><c>F </c><c>   3</c></rc>
    <rc><c>F </c><c>   3</c></rc>
    <rc><c>F </c><c>   3</c></rc>
    <rc><c>F </c><c>   3</c></rc>
    <rc><c>F </c><c>   3</c></rc>
    <rc><c>F </c><c>   3</c></rc>
    <rc><c>F </c><c>   3</c></rc>
    <rc><c>F </c><c>   3</c></rc>
    <rc><c>F </c><c>   3</c></rc>
    <rc><c>F </c><c>   3</c></rc>
    <rc><c>F </c><c>   3</c></rc>
    <rc><c>F </c><c>   3</c></rc>
    <rc><c>F </c><c>   3</c></rc>
    <rc><c>F </c><c>   3</c></rc>
   </set>
  </array>
  <array name="atomtypes" >
   <dimension dim="1">type</dimension>
   <field type="int">atomspertype</field>
   <field type="string">element</field>
   <field>mass</field>
   <field>valence</field>
   <field type="string">pseudopotential</field>
   <set>
    <rc><c>  16</c><c>Fe</c><c>     55.84700000</c><c>      8.00000000</c><c>  PAW_PBE Fe 06Sep2000                  </c></rc>
    <rc><c>   4</c><c>O </c><c>     16.00000000</c><c>      6.00000000</c><c>  PAW_PBE O 08Apr2002                   </c></rc>
    <rc><c>  32</c><c>F </c><c>     18.99800000</c><c>      7.00000000</c><c>  PAW_PBE F 08Apr2002                   </c></rc>
   </set>
  </array>
 </atominfo>
 <structure name="initialpos" >
  <crystal>
   <varray name="basis" >
    <v>       9.40119100       0.00000000      -0.08412900 </v>
    <v>       0.00000000       5.35946700       0.00000000 </v>
    <v>       0.00000000       0.00000000      14.95565100 </v>
   </varray>
   <i name="volume">    753.54605297 </i>
   <varray name="rec_basis" >
    <v>       0.10636950       0.00000000       0.00000000 </v>
    <v>       0.00000000       0.18658572       0.00000000 </v>
    <v>       0.00059835       0.00000000       0.06686436 </v>
   </varray>
  </crystal>
  <varray name="positions" >
   <v>       0.16411200       0.48397600       0.17863700 </v>
   <v>       0.17101200       0.51602400       0.67995900 </v>
   <v>       0.66411200       0.98397600       0.17995900 </v>
   <v>       0.66411200       0.01602400       0.67995900 </v>
   <v>       0.17533200       0.47285200       0.97303200 </v>
   <v>       0.17533200       0.52345800       0.47303200 </v>
   <v>       0.67533200       0.97285200       0.97303200 </v>
   <v>       0.67533200       0.02714800       0.47303200 </v>
   <v>       0.33162900       0.02941400       0.82240100 </v>
   <v>       0.33162900       0.97058600       0.32240100 </v>
   <v>       0.83162900       0.52941400       0.82240100 </v>
   <v>       0.83162900       0.47058600       0.32240100 </v>
   <v>       0.33361900       0.00343500       0.51711500 </v>
   <v>       0.33361900       0.99568000       0.01711500 </v>
   <v>       0.83316100       0.50432000       0.51711500 </v>
   <v>       0.83361900       0.49568000       0.01711500 </v>
   <v>       0.30926400       0.26740800       0.92544800 </v>
   <v>       0.30926400       0.73259200       0.42544800 </v>
   <v>       0.80926400       0.76740800       0.92544800 </v>
   <v>       0.80926400       0.23259200       0.42544800 </v>
   <v>       0.00386100       0.36884200       0.24394900 </v>
   <v>       0.00386100       0.63115800       0.74394900 </v>
   <v>       0.49917000       0.86884200       0.24836300 </v>
   <v>       0.50386100       0.13115800       0.74394900 </v>
   <v>       0.03236700       0.39537700       0.57915900 </v>
   <v>       0.02591400       0.60462300       0.07915900 </v>
   <v>       0.52591400       0.89537700       0.57915900 </v>
   <v>       0.52591400       0.10462300       0.07922200 </v>
   <v>       0.17611800       0.21417000       0.08350500 </v>
   <v>       0.17611800       0.78583000       0.58350500 </v>
   <v>       0.67611800       0.71417000       0.08350500 </v>
   <v>       0.67611800       0.28583000       0.59084500 </v>
   <v>       0.18147400       0.20344500       0.73945400 </v>
   <v>       0.18147400       0.79655500       0.23945400 </v>
   <v>       0.68147400       0.70344500       0.73945400 </v>
   <v>       0.68147400       0.29655500       0.23945400 </v>
   <v>       0.18900300       0.20186000       0.42366300 </v>
   <v>       0.18900300       0.79814000       0.92366300 </v>
   <v>       0.68900300       0.70186000       0.42366300 </v>
   <v>       0.68900300       0.29814000       0.92366300 </v>
   <v>       0.29347700       0.34686800       0.57827500 </v>
   <v>       0.29347700       0.65313200       0.07827500 </v>
   <v>       0.79347700       0.84686800       0.57827500 </v>
   <v>       0.79501700       0.15313200       0.07827500 </v>
   <v>       0.30310600       0.30561100       0.25408300 </v>
   <v>       0.30310600       0.69438900       0.74801900 </v>
   <v>       0.80310600       0.80561100       0.24801900 </v>
   <v>       0.80310600       0.19438900       0.74801900 </v>
   <v>       0.49071400       0.13464800       0.42295500 </v>
   <v>       0.49071400       0.86535200       0.92295500 </v>
   <v>       0.99071400       0.63258100       0.42295500 </v>
   <v>       0.99071400       0.36535200       0.91635600 </v>
  </varray>
 </structure>
 <calculation>
  <scstep>
   <time name="diag">    0.35    0.57</time>
   <time name="diis">    1.14    1.38</time>
   <time name="orth">    0.12    0.25</time>
   <time name="total">    1.83    2.58</time>
   <energy>
    <i name="alphaZ">   1136.56246079 </i>
    <i name="ewald"> -19733.26763594 </i>
    <i name="hartreedc"> -12158.22868459 </i>
    <i name="XCdc">   1336.05724443 </i>
    <i name="pawpsdc">  27518.38149996 </i>
    <i name="pawaedc"> -27812.06485035 </i>
    <i name="eentropy">      0.06921010 </i>
    <i name="bandstr">   2134.20022864 </i>
    <i name="atom">  32340.34786160 </i>
    <i name="e_fr_energy">   4762.05733463 </i>
    <i name="e_wo_entrp">   4761.98812452 </i>
    <i name="e_0_energy">   4762.03426459 </i>
   </energy>
  </scstep>
  <scstep>
   <time name="diag">    0.66    0.98</time>
   <time name="diis">    1.04    1.49</time>
   <time name="orth">    0.11    0.13</time>
   <time name="total">    1.81    2.61</time>
   <energy>
    <i name="e_fr_energy">   1581.14573158 </i>
    <i name="e_wo_entrp">   1581.08277021 </i>
    <i name="e_0_energy">   1581.12474446 </i>
   </energy>
  </scstep>
  <scstep>
   <time name="diag">    0.32    0.45</time>
   <time name="diis">    0.97    1.57</time>
   <time name="orth">    0.14    0.15</time>
   <time name="total">    1.44    2.16</time>
   <energy>
    <i name="e_fr_energy">    543.29251958 </i>
    <i name="e_wo_entrp">    543.06195938 </i>
    <i name="e_0_energy">    543.21566618 </i>
   </energy>
  </scstep>
  <scstep>
   <time name="diag">    0.97    1.32</time>
   <time name="diis">    0.97    1.49</time>
   <time name="orth">    0.08    0.08</time>
   <time name="total">    2.02    2.89</time>
   <energy>
    <i name="e_fr_energy">    116.78086046 </i>
    <i name="e_wo_entrp">    116.69530515 </i>
    <i name="e_0_energy">    116.75234202 </i>
   </energy>
  </scstep>
  <scstep>
   <time name="diag">    0.61    0.74</time>
   <time name="diis">    1.33    2.04</time>
   <time name="orth">    0.20    0.30</time>
   <time name="total">    2.14    3.08</time>
   <energy>
    <i name="e_fr_energy">   -131.74102709 </i>
    <i name="e_wo_entrp">   -131.76909564 </i>
    <i name="e_0_energy">   -131.75038327 </i>
   </energy>
  </scstep>
  <scstep>
   <time name="diag">    0.55    0.81</time>
   <time name="diis">    1.04    1.67</time>
   <time name="orth">    0.13    0.15</time>
   <time name="total">    1.73    2.63</time>
   <energy>
    <i name="e_fr_energy">   -242.69534291 </i>
    <i name="e_wo_entrp">   -242.76934094 </i>
    <i name="e_0_energy">   -242.72000892 </i>
   </energy>
  </scstep>
  <scstep>
   <time name="diag">    0.37    0.52</time>
   <time name="diis">    1.10    1.46</time>
   <time name="orth">    0.10    0.21</time>
   <time name="total">    1.57    2.18</time>
   <energy>
    <i name="e_fr_energy">   -296.68594646 </i>
    <i name="e_wo_entrp">   -296.73535950 </i>
    <i name="e_0_energy">   -296.70241747 </i>
   </energy>
  </scstep>
  <scstep>
   <time name="diag">    0.53    0.76</time>
   <time name="diis">    0.96    1.51</time>
   <time name="orth">    0.13    0.14</time>
   <time name="total">    1.63    2.42</time>
   <energy>
    <i name="e_fr_energy">   -317.51523595 </i>
    <i name="e_wo_entrp">   -317.54041357 </i>
    <i name="e_0_energy">   -317.52362849 </i>
   </energy>
  </scstep>
  <scstep>
   <time name="diag">    0.46    0.57</time>
   <time name="diis">    3.25    4.64</time>
   <time name="orth">    0.10    0.20</time>
   <time name="total">    3.82    5.42</time>
   <energy>
    <i name="e_fr_energy">   -336.98387187 </i>
    <i name="e_wo_entrp">   -336.99958075 </i>
    <i name="e_0_energy">   -336.98910816 </i>
   </energy>
  </scstep>
  <scstep>
   <time name="diag">    0.28    0.44</time>
   <time name="diis">    3.15    4.84</time>
   <time name="orth">    0.08    0.13</time>
   <time name="total">    3.51    5.41</time>
   <energy>
    <i name="e_fr_energy">   -337.52624625 </i>
    <i name="e_wo_entrp">   -337.54420814 </i>
    <i name="e_0_energy">   -337.53223354 </i>
   </energy>
  </scstep>
  <scstep>
   <time name="diag">    0.55    0.71</time>
   <time name="diis">    2.87    4.51</time>
   <time name="orth">    0.14    0.23</time>
   <time name="total">    3.57    5.45</time>
   <energy>
    <i name="e_fr_energy">   -337.85618045 </i>
    <i name="e_wo_entrp">   -337.86868149 </i>
    <i name="e_0_energy">   -337.86034747 </i>
   </energy>
  </scstep>
  <scstep>
   <time name="diag">    0.43    0.71</time>
   <time name="diis">    2.50    3.69</time>
   <time name="orth">    0.15    0.19</time>
   <time name="total">    3.19    4.72</time>
   <energy>
    <i name="e_fr_energy">   -337.97025184 </i>
    <i name="e_wo_entrp">   -337.98280516 </i>
    <i name="e_0_energy">   -337.97443628 </i>
   </energy>
  </scstep>
  <scstep>
   <time name="diag">    0.32    0.43</time>
   <time name="diis">    2.59    3.44</time>
   <time name="orth">    0.13    0.14</time>
   <time name="total">    3.30    4.37</time>
   <energy>
    <i name="e_fr_energy">   -325.90557357 </i>
    <i name="e_wo_entrp">   -325.68059756 </i>
    <i name="e_0_energy">   -325.83058156 </i>
   </energy>
  </scstep>
  <scstep>
   <time name="diag">    0.39    0.49</time>
   <time name="diis">    2.52    3.86</time>
   <time name="orth">    0.15    0.19</time>
   <time name="total">    3.35    4.92</time>
   <energy>
    <i name="e_fr_energy">   -396.81325987 </i>
    <i name="e_wo_entrp">   -396.75404609 </i>
    <i name="e_0_energy">   -396.79352194 </i>
   </energy>
  </scstep>
  <scstep>
   <time name="diag">    0.45    0.71</time>
   <time name="diis">    2.42    3.40</time>
   <time name="orth">    0.08    0.15</time>
   <time name="total">    3.33    4.81</time>
   <energy>
    <i name="e_fr_energy">   -315.78192387 </i>
    <i name="e_wo_entrp">   -315.62520134 </i>
    <i name="e_0_energy">   -315.72968302 </i>
   </energy>
  </scstep>
  <scstep>
   <time name="diag">    0.25    0.51</time>
   <time name="diis">    2.31    3.24</time>
   <time name="orth">    0.11    0.21</time>
   <time name="total">    2.95    4.34</time>
   <energy>
    <i name="e_fr_energy">   -302.50557808 </i>
    <i name="e_wo_entrp">   -302.36447930 </i>
    <i name="e_0_energy">   -302.45854515 </i>
   </energy>
  </scstep>
  <scstep>
   <time name="diag">    0.30    0.43</time>
   <time name="diis">    2.04    2.90</time>
   <time name="orth">    0.07    0.14</time>
   <time name="total">    2.72    3.85</time>
   <energy>
    <i name="e_fr_energy">   -392.15270020 </i>
    <i name="e_wo_entrp">   -392.12077706 </i>
    <i name="e_0_energy">   -392.14205915 </i>
   </energy>
  </scstep>
  <scstep>
   <time name="diag">    0.29    0.40</time>
   <time name="diis">    2.03    2.97</time>
   <time name="orth">    0.11    0.15</time>
   <time name="total">    2.68    3.77</time>
   <energy>
    <i name="e_fr_energy">   -382.35435331 </i>
    <i name="e_wo_entrp">   -382.15340441 </i>
    <i name="e_0_energy">   -382.28737035 </i>
   </energy>
  </scstep>
  <scstep>
   <time name="diag">    0.28    0.32</time>
   <time name="diis">    1.99    2.81</time>
   <time name="orth">    0.09    0.17</time>
   <time name="total">    2.60    3.67</time>
   <energy>
    <i name="e_fr_energy">   -325.10520242 </i>
    <i name="e_wo_entrp">   -325.07887257 </i>
    <i name="e_0_energy">   -325.09642580 </i>
   </energy>
  </scstep>
  <scstep>
   <time name="diag">    0.35    0.47</time>
   <time name="diis">    2.39    2.92</time>
   <time name="orth">    0.15    0.20</time>
   <time name="total">    3.17    4.06</time>
   <energy>
    <i name="e_fr_energy">   -341.92071596 </i>
    <i name="e_wo_entrp">   -341.97257266 </i>
    <i name="e_0_energy">   -341.93800152 </i>
   </energy>
  </scstep>
  <scstep>
   <time name="diag">    0.30    0.49</time>
   <time name="diis">    2.15    2.62</time>
   <time name="orth">    0.07    0.07</time>
   <time name="total">    2.82    3.53</time>
   <energy>
    <i name="e_fr_energy">   -319.32575441 </i>
    <i name="e_wo_entrp">   -319.20874137 </i>
    <i name="e_0_energy">   -319.28675006 </i>
   </energy>
  </scstep>
  <scstep>
   <time name="diag">    0.33    0.33</time>
   <time name="diis">    2.17    2.99</time>
   <time name="orth">    0.08    0.10</time>
   <time name="total">    2.83    3.69</time>
   <energy>
    <i name="e_fr_energy">   -290.98677750 </i>
    <i name="e_wo_entrp">   -291.00275768 </i>
    <i name="e_0_energy">   -290.99210423 </i>
   </energy>
  </scstep>
  <scstep>
   <time name="diag">    0.33    0.52</time>
   <time name="diis">    2.11    2.82</time>
   <time name="orth">    0.12    0.18</time>
   <time name="total">    2.75    3.79</time>
   <energy>
    <i name="e_fr_energy">   -291.51602700 </i>
    <i name="e_wo_entrp">   -291.46928510 </i>
    <i name="e_0_energy">   -291.50044637 </i>
   </energy>
  </scstep>
  <scstep>
   <time name="diag">    0.31    0.46</time>
   <time name="diis">    1.92    2.84</time>
   <time name="orth">    0.15    0.31</time>
   <time name="total">    2.59    3.88</time>
   <energy>
    <i name="e_fr_energy">   -289.65060290 </i>
    <i name="e_wo_entrp">   -289.56543514 </i>
    <i name="e_0_energy">   -289.62221365 </i>
   </energy>
  </scstep>
  <scstep>
   <time name="diag">    0.29    0.29</time>
   <time name="diis">    2.30    2.98</time>
   <time name="orth">    0.08    0.17</time>
   <time name="total">    2.88    3.74</time>
   <energy>
    <i name="e_fr_energy">   -282.26479485 </i>
    <i name="e_wo_entrp">   -282.18183022 </i>
    <i name="e_0_energy">   -282.23713997 </i>
   </energy>
  </scstep>
  <scstep>
   <time name="diag">    0.26    0.41</time>
   <time name="diis">    2.01    2.96</time>
   <time name="orth">    0.09    0.15</time>
   <time name="total">    2.55    3.82</time>
   <energy>
    <i name="e_fr_energy">   -287.75144663 </i>
    <i name="e_wo_entrp">   -287.73659471 </i>
    <i name="e_0_energy">   -287.74649599 </i>
   </energy>
  </scstep>
  <scstep>
   <time name="diag">    0.25    0.37</time>
   <time name="diis">    2.10    2.97</time>
   <time name="orth">    0.11    0.14</time>
   <time name="total">    2.66    3.74</time>
   <energy>
    <i name="e_fr_energy">   -282.22867605 </i>
    <i name="e_wo_entrp">   -282.20569034 </i>
    <i name="e_0_energy">   -282.22101415 </i>
   </energy>
  </scstep>
  <scstep>
   <time name="diag">    0.26    0.27</time>
   <time name="diis">    1.91    2.68</time>
   <time name="orth">    0.09    0.09</time>
   <time name="total">    2.53    3.40</time>
   <energy>
    <i name="e_fr_energy">   -279.55032535 </i>
    <i name="e_wo_entrp">   -279.40024846 </i>
    <i name="e_0_energy">   -279.50029972 </i>
   </energy>
  </scstep>
  <scstep>
   <time name="diag">    0.26    0.36</time>
   <time name="diis">    2.03    2.95</time>
   <time name="orth">    0.13    0.15</time>
   <time name="total">    2.62    3.73</time>
   <energy>
    <i name="e_fr_energy">   -278.07757738 </i>
    <i name="e_wo_entrp">   -278.05691963 </i>
    <i name="e_0_energy">   -278.07069146 </i>
   </energy>
  </scstep>
  <scstep>
   <time name="diag">    0.26    0.37</time>
   <time name="diis">    2.03    2.74</time>
   <time name="orth">    0.16    0.16</time>
   <time name="total">    2.65    3.53</time>
   <energy>
    <i name="e_fr_energy">   -277.55182488 </i>
    <i name="e_wo_entrp">   -277.56988359 </i>
    <i name="e_0_energy">   -277.55784445 </i>
   </energy>
  </scstep>
  <scstep>
   <time name="diag">    0.33    0.38</time>
   <time name="diis">    1.96    2.90</time>
   <time name="orth">    0.07    0.10</time>
   <time name="total">    2.57    3.65</time>
   <energy>
    <i name="e_fr_energy">   -277.52254871 </i>
    <i name="e_wo_entrp">   -277.55154411 </i>
    <i name="e_0_energy">   -277.53221384 </i>
   </energy>
  </scstep>
  <scstep>
   <time name="diag">    0.32    0.45</time>
   <time name="diis">    2.14    2.64</time>
   <time name="orth">    0.09    0.12</time>
   <time name="total">    2.79    3.54</time>
   <energy>
    <i name="e_fr_energy">   -277.04613877 </i>
    <i name="e_wo_entrp">   -277.00150865 </i>
    <i name="e_0_energy">   -277.03126206 </i>
   </energy>
  </scstep>
  <scstep>
   <time name="diag">    0.29    0.47</time>
   <time name="diis">    1.87    2.71</time>
   <time name="orth">    0.09    0.11</time>
   <time name="total">    2.55    3.70</time>
   <energy>
    <i name="e_fr_energy">   -276.94962330 </i>
    <i name="e_wo_entrp">   -276.91929246 </i>
    <i name="e_0_energy">   -276.93951302 </i>
   </energy>
  </scstep>
  <scstep>
   <time name="diag">    0.45    0.59</time>
   <time name="diis">    1.91    2.70</time>
   <time name="orth">    0.15    0.20</time>
   <time name="total">    2.74    3.88</time>
   <energy>
    <i name="e_fr_energy">   -277.07079476 </i>
    <i name="e_wo_entrp">   -277.08030604 </i>
    <i name="e_0_energy">   -277.07396519 </i>
   </energy>
  </scstep>
  <scstep>
   <time name="diag">    0.26    0.44</time>
   <time name="diis">    2.00    2.85</time>
   <time name="orth">    0.13    0.14</time>
   <time name="total">    2.70    3.82</time>
   <energy>
    <i name="e_fr_energy">   -276.94344857 </i>
    <i name="e_wo_entrp">   -276.90789755 </i>
    <i name="e_0_energy">   -276.93159823 </i>
   </energy>
  </scstep>
  <scstep>
   <time name="diag">    0.41    0.72</time>
   <time name="diis">    2.00    2.95</time>
   <time name="orth">    0.11    0.15</time>
   <time name="total">    2.88    4.29</time>
   <energy>
    <i name="e_fr_energy">   -276.96291637 </i>
    <i name="e_wo_entrp">   -276.94766049 </i>
    <i name="e_0_energy">   -276.95783108 </i>
   </energy>
  </scstep>
  <scstep>
   <time name="diag">    0.34    0.45</time>
   <time name="diis">    2.30    3.24</time>
   <time name="orth">    0.09    0.17</time>
   <time name="total">    3.00    4.31</time>
   <energy>
    <i name="e_fr_energy">   -277.24513072 </i>
    <i name="e_wo_entrp">   -277.23949017 </i>
    <i name="e_0_energy">   -277.24325054 </i>
   </energy>
  </scstep>
  <scstep>
   <time name="diag">    0.33    0.53</time>
   <time name="diis">    2.18    3.22</time>
   <time name="orth">    0.08    0.13</time>
   <time name="total">    2.89    4.38</time>
   <energy>
    <i name="e_fr_energy">   -277.78343253 </i>
    <i name="e_wo_entrp">   -277.79051084 </i>
    <i name="e_0_energy">   -277.78579197 </i>
   </energy>
  </scstep>
  <scstep>
   <time name="diag">    0.36    0.57</time>
   <time name="diis">    2.99    3.56</time>
   <time name="orth">    0.13    0.14</time>
   <time name="total">    3.83    4.69</time>
   <energy>
    <i name="e_fr_energy">   -277.21123889 </i>
    <i name="e_wo_entrp">   -277.22449630 </i>
    <i name="e_0_energy">   -277.21565803 </i>
   </energy>
  </scstep>
  <scstep>
   <time name="diag">    0.30    0.52</time>
   <time name="diis">    2.38    3.20</time>
   <time name="orth">    0.09    0.19</time>
   <time name="total">    3.04    4.37</time>
   <energy>
    <i name="e_fr_energy">   -276.94380941 </i>
    <i name="e_wo_entrp">   -276.95624888 </i>
    <i name="e_0_energy">   -276.94795590 </i>
   </energy>
  </scstep>
  <scstep>
   <time name="diag">    0.38    0.55</time>
   <time name="diis">    2.14    3.39</time>
   <time name="orth">    0.35    0.48</time>
   <time name="total">    3.20    4.80</time>
   <energy>
    <i name="e_fr_energy">   -276.90888281 </i>
    <i name="e_wo_entrp">   -276.93544729 </i>
    <i name="e_0_energy">   -276.91773764 </i>
   </energy>
  </scstep>
  <scstep>
   <time name="diag">    0.74    1.00</time>
   <time name="diis">    2.37    3.30</time>
   <time name="orth">    0.10    0.15</time>
   <time name="total">    3.60    4.98</time>
   <energy>
    <i name="e_fr_energy">   -276.89923459 </i>
    <i name="e_wo_entrp">   -276.91939698 </i>
    <i name="e_0_energy">   -276.90595539 </i>
   </energy>
  </scstep>
  <scstep>
   <time name="diag">    0.43    0.52</time>
   <time name="diis">    1.96    2.89</time>
   <time name="orth">    0.07    0.15</time>
   <time name="total">    2.80    3.97</time>
   <energy>
    <i name="e_fr_energy">   -276.90061379 </i>
    <i name="e_wo_entrp">   -276.93608905 </i>
    <i name="e_0_energy">   -276.91243888 </i>
   </energy>
  </scstep>
  <scstep>
   <time name="diag">    0.41    0.56</time>
   <time name="diis">    1.91    2.74</time>
   <time name="orth">    0.15    0.15</time>
   <time name="total">    2.74    3.82</time>
   <energy>
    <i name="e_fr_energy">   -276.92304914 </i>
    <i name="e_wo_entrp">   -276.95443310 </i>
    <i name="e_0_energy">   -276.93351046 </i>
   </energy>
  </scstep>
  <scstep>
   <time name="diag">    0.29    0.44</time>
   <time name="diis">    1.91    2.66</time>
   <time name="orth">    0.34    0.65</time>
   <time name="total">    2.82    4.22</time>
   <energy>
    <i name="e_fr_energy">   -276.92241337 </i>
    <i name="e_wo_entrp">   -276.96399928 </i>
    <i name="e_0_energy">   -276.93627534 </i>
   </energy>
  </scstep>
  <scstep>
   <time name="diag">    0.38    0.58</time>
   <time name="diis">    2.16    2.72</time>
   <time name="orth">    0.15    0.18</time>
   <time name="total">    3.06    4.04</time>
   <energy>
    <i name="e_fr_energy">   -276.93224141 </i>
    <i name="e_wo_entrp">   -276.97997766 </i>
    <i name="e_0_energy">   -276.94815349 </i>
   </energy>
  </scstep>
  <scstep>
   <time name="diag">    0.24    0.31</time>
   <time name="diis">    1.66    2.39</time>
   <time name="orth">    0.14    0.16</time>
   <time name="total">    2.35    3.24</time>
   <energy>
    <i name="e_fr_energy">   -276.93477777 </i>
    <i name="e_wo_entrp">   -276.98132843 </i>
    <i name="e_0_energy">   -276.95029465 </i>
   </energy>
  </scstep>
  <scstep>
   <time name="diag">    0.40    0.54</time>
   <time name="diis">    1.89    2.54</time>
   <time name="orth">    0.11    0.18</time>
   <time name="total">    2.82    3.78</time>
   <energy>
    <i name="e_fr_energy">   -276.93945940 </i>
    <i name="e_wo_entrp">   -276.99446426 </i>
    <i name="e_0_energy">   -276.95779435 </i>
   </energy>
  </scstep>
  <scstep>
   <time name="diag">    0.45    0.80</time>
   <time name="diis">    1.94    2.61</time>
   <time name="orth">    0.14    0.15</time>
   <time name="total">    2.88    4.00</time>
   <energy>
    <i name="e_fr_energy">   -276.94430680 </i>
    <i name="e_wo_entrp">   -277.00129120 </i>
    <i name="e_0_energy">   -276.96330160 </i>
   </energy>
  </scstep>
  <scstep>
   <time name="diag">    0.33    0.43</time>
   <time name="diis">    1.88    2.49</time>
   <time name="orth">    0.12    0.19</time>
   <time name="total">    2.71    3.60</time>
   <energy>
    <i name="e_fr_energy">   -276.94964207 </i>
    <i name="e_wo_entrp">   -277.00770062 </i>
    <i name="e_0_energy">   -276.96899492 </i>
   </energy>
  </scstep>
  <scstep>
   <time name="diag">    0.45    0.51</time>
   <time name="diis">    1.65    1.99</time>
   <time name="orth">    0.07    0.09</time>
   <time name="total">    2.49    2.96</time>
   <energy>
    <i name="e_fr_energy">   -276.95064340 </i>
    <i name="e_wo_entrp">   -277.01297952 </i>
    <i name="e_0_energy">   -276.97142211 </i>
   </energy>
  </scstep>
  <scstep>
   <time name="diag">    0.34    0.41</time>
   <time name="diis">    1.52    2.23</time>
   <time name="orth">    0.10    0.19</time>
   <time name="total">    2.29    3.25</time>
   <energy>
    <i name="e_fr_energy">   -276.95269542 </i>
    <i name="e_wo_entrp">   -277.01575112 </i>
    <i name="e_0_energy">   -276.97371399 </i>
   </energy>
  </scstep>
  <scstep>
   <time name="diag">    0.35    0.57</time>
   <time name="diis">    1.16    1.71</time>
   <time name="orth">    0.14    0.18</time>
   <time name="total">    1.89    2.81</time>
   <energy>
    <i name="e_fr_energy">   -276.95384611 </i>
    <i name="e_wo_entrp">   -277.01732507 </i>
    <i name="e_0_energy">   -276.97500576 </i>
   </energy>
  </scstep>
  <scstep>
   <time name="diag">    0.34    0.36</time>
   <time name="diis">    1.35    1.78</time>
   <time name="orth">    0.08    0.11</time>
   <time name="total">    2.09    2.65</time>
   <energy>
    <i name="e_fr_energy">   -276.95463205 </i>
    <i name="e_wo_entrp">   -277.01964827 </i>
    <i name="e_0_energy">   -276.97630412 </i>
   </energy>
  </scstep>
  <scstep>
   <time name="diag">    0.57    0.74</time>
   <time name="diis">    1.30    1.53</time>
   <time name="orth">    0.11    0.12</time>
   <time name="total">    2.16    2.67</time>
   <energy>
    <i name="alphaZ">   1136.56246079 </i>
    <i name="ewald"> -19733.26763594 </i>
    <i name="hartreedc"> -12304.16619389 </i>
    <i name="XCdc">   1356.28648507 </i>
    <i name="pawpsdc">  32532.41960846 </i>
    <i name="pawaedc"> -32836.61633820 </i>
    <i name="eentropy">      0.06462305 </i>
    <i name="bandstr">  -2768.58559742 </i>
    <i name="atom">  32340.34786160 </i>
    <i name="e_fr_energy">   -276.95472649 </i>
    <i name="e_wo_entrp">   -277.01934954 </i>
    <i name="e_0_energy">   -276.97626751 </i>
   </energy>
  </scstep>
  <structure>
   <crystal>
    <varray name="basis" >
     <v>       9.40119100       0.00000000      -0.08412900 </v>
     <v>       0.00000000       5.35946700       0.00000000 </v>
     <v>       0.00000000       0.00000000      14.95565100 </v>
    </varray>
    <i name="volume">    753.54605297 </i>
    <varray name="rec_basis" >
     <v>       0.10636950       0.00000000       0.00000000 </v>
     <v>       0.00000000       0.18658572       0.00000000 </v>
     <v>       0.00059835       0.00000000       0.06686436 </v>
    </varray>
   </crystal>
   <varray name="positions" >
    <v>       0.16411200       0.48397600       0.17863700 </v>
    <v>       0.17101200       0.51602400       0.67995900 </v>
    <v>       0.66411200       0.98397600       0.17995900 </v>
    <v>       0.66411200       0.01602400       0.67995900 </v>
    <v>       0.17533200       0.47285200       0.97303200 </v>
    <v>       0.17533200       0.52345800       0.47303200 </v>
    <v>       0.67533200       0.97285200       0.97303200 </v>
    <v>       0.67533200       0.02714800       0.47303200 </v>
    <v>       0.33162900       0.02941400       0.82240100 </v>
    <v>       0.33162900       0.97058600       0.32240100 </v>
    <v>       0.83162900       0.52941400       0.82240100 </v>
    <v>       0.83162900       0.47058600       0.32240100 </v>
    <v>       0.33361900       0.00343500       0.51711500 </v>
    <v>       0.33361900       0.99568000       0.01711500 </v>
    <v>       0.83316100       0.50432000       0.51711500 </v>
    <v>       0.83361900       0.49568000       0.01711500 </v>
    <v>       0.30926400       0.26740800       0.92544800 </v>
    <v>       0.30926400       0.73259200       0.42544800 </v>
    <v>       0.80926400       0.76740800       0.92544800 </v>
    <v>       0.80926400       0.23259200       0.42544800 </v>
    <v>       0.00386100       0.36884200       0.24394900 </v>
    <v>       0.00386100       0.63115800       0.74394900 </v>
    <v>       0.49917000       0.86884200       0.24836300 </v>
    <v>       0.50386100       0.13115800       0.74394900 </v>
    <v>       0.03236700       0.39537700       0.57915900 </v>
    <v>       0.02591400       0.60462300       0.07915900 </v>
    <v>       0.52591400       0.89537700       0.57915900 </v>
    <v>       0.52591400       0.10462300       0.07922200 </v>
    <v>       0.17611800       0.21417000       0.08350500 </v>
    <v>       0.17611800       0.78583000       0.58350500 </v>
    <v>       0.67611800       0.71417000       0.08350500 </v>
    <v>       0.67611800       0.28583000       0.59084500 </v>
    <v>       0.18147400       0.20344500       0.73945400 </v>
    <v>       0.18147400       0.79655500       0.23945400 </v>
    <v>       0.68147400       0.70344500       0.73945400 </v>
    <v>       0.68147400       0.29655500       0.23945400 </v>
    <v>       0.18900300       0.20186000       0.42366300 </v>
    <v>       0.18900300       0.79814000       0.92366300 </v>
    <v>       0.68900300       0.70186000       0.42366300 </v>
    <v>       0.68900300       0.29814000       0.92366300 </v>
    <v>       0.29347700       0.34686800       0.57827500 </v>
    <v>       0.29347700       0.65313200       0.07827500 </v>
    <v>       0.79347700       0.84686800       0.57827500 </v>
    <v>       0.79501700       0.15313200       0.07827500 </v>
    <v>       0.30310600       0.30561100       0.25408300 </v>
    <v>       0.30310600       0.69438900       0.74801900 </v>
    <v>       0.80310600       0.80561100       0.24801900 </v>
    <v>       0.80310600       0.19438900       0.74801900 </v>
    <v>       0.49071400       0.13464800       0.42295500 </v>
    <v>       0.49071400       0.86535200       0.92295500 </v>
    <v>       0.99071400       0.63258100       0.42295500 </v>
    <v>       0.99071400       0.36535200       0.91635600 </v>
   </varray>
  </structure>
  <varray name="forces" >
   <v>       0.24513894       0.09576085       0.12392493 </v>
   <v>      -0.77406166      -0.22352016      -0.55460397 </v>
   <v>      -0.07304585       0.05652601      -0.20345275 </v>
   <v>       0.24237210      -0.08998199      -0.32360701 </v>
   <v>       0.19491533      -0.72255951       0.94147092 </v>
   <v>       0.35978842       1.04695076       1.35249650 </v>
   <v>       0.39517711      -0.74239519       1.23115517 </v>
   <v>       0.35238663       0.75504628       1.12213129 </v>
   <v>      -0.49719150       1.08255414       0.02632285 </v>
   <v>      -0.46391145      -1.00293767       0.00328113 </v>
   <v>      -0.23255718       1.04963381      -0.03789442 </v>
   <v>      -0.43148892      -1.04487338      -0.04379342 </v>
   <v>       0.22527875      -1.27782036      -1.33539056 </v>
   <v>       0.24929553       1.23731691      -1.42213993 </v>
   <v>       0.29764837      -1.26614468      -1.27753865 </v>
   <v>       0.13230765       1.20240635      -1.38633013 </v>
   <v>      -0.32162398      -1.70911863       0.20259335 </v>
   <v>      -0.44602796       1.65612064       0.15934224 </v>
   <v>      -0.37458863      -1.72874629       0.17542178 </v>
   <v>      -0.45854997       1.68830555       0.27773464 </v>
   <v>      -0.28566072       0.24913361       0.29033158 </v>
   <v>      -0.13604599      -0.32901791       0.20314783 </v>
   <v>      -0.04758385       0.34332375       0.04318706 </v>
   <v>      -0.37229308      -0.25035656       0.37027462 </v>
   <v>      -0.79183599       0.21406588      -0.45354738 </v>
   <v>      -0.62447517      -0.29696174      -0.48617177 </v>
   <v>      -0.63646991       0.24595064      -0.39861799 </v>
   <v>      -0.63657690      -0.26149203      -0.34013726 </v>
   <v>       0.20157686      -0.32792385      -0.37693437 </v>
   <v>       0.33149267       0.36895783      -0.37032061 </v>
   <v>       0.20578704      -0.30622810      -0.38513041 </v>
   <v>       0.15049796       0.36915991      -0.67424157 </v>
   <v>       0.84578155       0.13092075       0.67762843 </v>
   <v>       0.66438967      -0.11524117       0.54679897 </v>
   <v>       0.67079256       0.06756994       0.66610548 </v>
   <v>       0.70710405      -0.10532969       0.64518204 </v>
   <v>       0.48800205      -0.43545445       0.05716605 </v>
   <v>       0.53115801       0.24890256       0.07077204 </v>
   <v>       0.52103196      -0.24542259       0.11728182 </v>
   <v>       0.49395608       0.26818879       0.06269612 </v>
   <v>       0.38766895       0.12174420      -0.33855939 </v>
   <v>       0.17332058      -0.19967391      -0.35939778 </v>
   <v>       0.18345200       0.13113350      -0.39095565 </v>
   <v>       0.13928639      -0.12590990      -0.37930845 </v>
   <v>      -0.39735940      -0.13823396      -0.08001158 </v>
   <v>       0.13007646       0.29022004       0.47145420 </v>
   <v>      -0.23467574      -0.18668015       0.29180906 </v>
   <v>      -0.20939719       0.12058300       0.34776533 </v>
   <v>      -0.27621797      -0.43868132       0.23255474 </v>
   <v>      -0.30316398       0.44679296       0.20134656 </v>
   <v>      -0.30012529      -0.44785109       0.16695475 </v>
   <v>      -0.19475539       0.53128764       0.53975357 </v>
  </varray>
  <varray name="stress" >
   <v>    -209.67349292      -0.19523915       0.45491389 </v>
   <v>      -0.19523993    -212.01414879       0.57811230 </v>
   <v>       0.45491500       0.57811158    -239.25180634 </v>
  </varray>
  <energy>
   <i name="e_fr_energy">   -276.95472649 </i>
   <i name="e_wo_entrp">   -276.97626751 </i>
   <i name="e_0_energy">      0.06462305 </i>
  </energy>
  <time name="totalsc">  154.43  217.02</time>
  <eigenvalues>
   <array>
    <dimension dim="1">band</dimension>
    <dimension dim="2">kpoint</dimension>
    <dimension dim="3">spin</dimension>
    <field>eigene</field>
    <field>occ</field>
    <set>
     <set comment="spin 1">
      <set comment="kpoint 1">
       <r>  -23.8707    1.0000 </r>
       <r>  -23.8550    1.0000 </r>
       <r>  -23.7725    1.0000 </r>
       <r>  -23.7434    1.0000 </r>
       <r>  -23.6822    1.0000 </r>
       <r>  -23.6645    1.0000 </r>
       <r>  -23.6095    1.0000 </r>
       <r>  -23.5841    1.0000 </r>
       <r>  -23.5644    1.0000 </r>
       <r>  -23.5571    1.0000 </r>
       <r>  -23.5308    1.0000 </r>
       <r>  -23.4724    1.0000 </r>
       <r>  -23.3291    1.0000 </r>
       <r>  -23.3262    1.0000 </r>
       <r>  -23.2685    1.0000 </r>
       <r>  -23.2209    1.0000 </r>
       <r>  -23.1997    1.0000 </r>
       <r>  -23.1493    1.0000 </r>
       <r>  -23.1323    1.0000 </r>
       <r>  -23.1301    1.0000 </r>
       <r>  -23.0951    1.0000 </r>
       <r>  -23.0637    1.0000 </r>
       <r>  -23.0414    1.0000 </r>
       <r>  -23.0179    1.0000 </r>
       <r>  -22.9740    1.0000 </r>
       <r>  -22.9715    1.0000 </r>
       <r>  -22.9670    1.0000 </r>
       <r>  -22.9051    1.0000 </r>
       <r>  -22.7895    1.0000 </r>
       <r>  -22.7679    1.0000 </r>
       <r>  -22.7166    1.0000 </r>
       <r>  -22.6578    1.0000 </r>
       <r>  -18.7357    1.0000 </r>
       <r>  -18.7290    1.0000 </r>
       <r>  -18.7213    1.0000 </r>
       <r>  -18.6848    1.0000 </r>
       <r>   -6.9875    1.0000 </r>
       <r>   -6.9713    1.0000 </r>
       <r>   -6.8861    1.0000 </r>
       <r>   -6.8032    1.0000 </r>
       <r>   -6.7862    1.0000 </r>
       <r>   -6.7546    1.0000 </r>
       <r>   -6.7507    1.0000 </r>
       <r>   -6.7062    1.0000 </r>
       <r>   -6.4748    1.0000 </r>
       <r>   -6.4090    1.0000 </r>
       <r>   -6.3412    1.0000 </r>
       <r>   -6.2359    1.0000 </r>
       <r>   -6.2056    1.0000 </r>
       <r>   -6.1778    1.0000 </r>
       <r>   -6.1543    1.0000 </r>
       <r>   -6.1338    1.0000 </r>
       <r>   -6.1057    1.0000 </r>
       <r>   -6.0979    1.0000 </r>
       <r>   -6.0798    1.0000 </r>
       <r>   -6.0722    1.0000 </r>
       <r>   -6.0273    1.0000 </r>
       <r>   -5.9951    1.0000 </r>
       <r>   -5.9574    1.0000 </r>
       <r>   -5.9355    1.0000 </r>
       <r>   -5.9164    1.0000 </r>
       <r>   -5.9050    1.0000 </r>
       <r>   -5.8654    1.0000 </r>
       <r>   -5.8511    1.0000 </r>
       <r>   -5.8256    1.0000 </r>
       <r>   -5.8106    1.0000 </r>
       <r>   -5.7812    1.0000 </r>
       <r>   -5.7562    1.0000 </r>
       <r>   -5.7191    1.0000 </r>
       <r>   -5.6967    1.0000 </r>
       <r>   -5.6701    1.0000 </r>
       <r>   -5.6543    1.0000 </r>
       <r>   -5.6268    1.0000 </r>
       <r>   -5.6176    1.0000 </r>
       <r>   -5.6094    1.0000 </r>
       <r>   -5.5701    1.0000 </r>
       <r>   -5.5509    1.0000 </r>
       <r>   -5.5192    1.0000 </r>
       <r>   -5.5076    1.0000 </r>
       <r>   -5.4700    1.0000 </r>
       <r>   -5.4180    1.0000 </r>
       <r>   -5.4006    1.0000 </r>
       <r>   -5.2879    1.0000 </r>
       <r>   -5.2500    1.0000 </r>
       <r>   -5.1852    1.0000 </r>
       <r>   -5.1624    1.0000 </r>
       <r>   -5.1283    1.0000 </r>
       <r>   -5.0735    1.0000 </r>
       <r>   -5.0586    1.0000 </r>
       <r>   -5.0291    1.0000 </r>
       <r>   -4.9920    1.0000 </r>
       <r>   -4.9792    1.0000 </r>
       <r>   -4.9071    1.0000 </r>
       <r>   -4.8599    1.0000 </r>
       <r>   -4.8080    1.0000 </r>
       <r>   -4.7840    1.0000 </r>
       <r>   -4.7430    1.0000 </r>
       <r>   -4.6448    1.0000 </r>
       <r>   -4.6364    1.0000 </r>
       <r>   -4.6324    1.0000 </r>
       <r>   -4.5991    1.0000 </r>
       <r>   -4.5836    1.0000 </r>
       <r>   -4.5554    1.0000 </r>
       <r>   -4.5242    1.0000 </r>
       <r>   -4.5200    1.0000 </r>
       <r>   -4.5033    1.0000 </r>
       <r>   -4.4700    1.0000 </r>
       <r>   -4.4238    1.0000 </r>
       <r>   -4.3965    1.0000 </r>
       <r>   -4.3702    1.0000 </r>
       <r>   -4.3547    1.0000 </r>
       <r>   -4.3192    1.0000 </r>
       <r>   -4.3098    1.0000 </r>
       <r>   -4.2822    1.0000 </r>
       <r>   -4.2304    1.0000 </r>
       <r>   -4.1820    1.0000 </r>
       <r>   -4.1509    1.0000 </r>
       <r>   -4.1254    1.0000 </r>
       <r>   -4.1057    1.0000 </r>
       <r>   -4.0887    1.0000 </r>
       <r>   -4.0517    1.0000 </r>
       <r>   -4.0270    1.0000 </r>
       <r>   -4.0198    1.0000 </r>
       <r>   -3.9818    1.0000 </r>
       <r>   -3.9547    1.0000 </r>
       <r>   -3.9240    1.0000 </r>
       <r>   -3.8909    1.0000 </r>
       <r>   -3.8605    1.0000 </r>
       <r>   -3.8328    1.0000 </r>
       <r>   -3.8093    1.0000 </r>
       <r>   -3.8050    1.0000 </r>
       <r>   -3.7780    1.0000 </r>
       <r>   -3.7523    1.0000 </r>
       <r>   -3.7308    1.0000 </r>
       <r>   -3.6864    1.0000 </r>
       <r>   -3.6564    1.0000 </r>
       <r>   -3.6409    1.0000 </r>
       <r>   -3.5865    1.0000 </r>
       <r>   -3.5319    1.0000 </r>
       <r>   -3.5083    1.0000 </r>
       <r>   -3.4589    1.0000 </r>
       <r>   -3.4541    1.0000 </r>
       <r>   -3.3870    1.0000 </r>
       <r>   -3.3771    1.0000 </r>
       <r>   -0.8505    1.0000 </r>
       <r>   -0.8364    1.0000 </r>
       <r>   -0.8171    1.0000 </r>
       <r>   -0.7797    1.0000 </r>
       <r>   -0.7688    1.0000 </r>
       <r>   -0.7544    1.0001 </r>
       <r>   -0.7074    1.0002 </r>
       <r>   -0.6971    1.0003 </r>
       <r>   -0.6652    1.0006 </r>
       <r>   -0.6501    1.0008 </r>
       <r>   -0.6447    1.0009 </r>
       <r>   -0.6369    1.0011 </r>
       <r>   -0.6286    1.0013 </r>
       <r>   -0.6030    1.0022 </r>
       <r>   -0.5969    1.0025 </r>
       <r>   -0.5758    1.0038 </r>
       <r>   -0.5421    1.0070 </r>
       <r>   -0.5022    1.0129 </r>
       <r>   -0.4953    1.0142 </r>
       <r>   -0.4805    1.0171 </r>
       <r>   -0.4602    1.0216 </r>
       <r>   -0.4445    1.0252 </r>
       <r>   -0.4441    1.0253 </r>
       <r>   -0.4369    1.0270 </r>
       <r>   -0.4271    1.0291 </r>
       <r>   -0.4120    1.0321 </r>
       <r>   -0.4021    1.0337 </r>
       <r>   -0.3924    1.0348 </r>
       <r>   -0.3881    1.0352 </r>
       <r>   -0.3722    1.0353 </r>
       <r>   -0.3655    1.0347 </r>
       <r>   -0.3587    1.0337 </r>
       <r>   -0.3348    1.0256 </r>
       <r>   -0.3154    1.0127 </r>
       <r>   -0.2910    0.9862 </r>
       <r>   -0.2760    0.9635 </r>
       <r>   -0.2651    0.9436 </r>
       <r>   -0.2372    0.8789 </r>
       <r>   -0.2153    0.8149 </r>
       <r>   -0.2122    0.8049 </r>
       <r>   -0.2073    0.7886 </r>
       <r>   -0.1946    0.7443 </r>
       <r>   -0.1853    0.7098 </r>
       <r>   -0.1570    0.5972 </r>
       <r>   -0.1152    0.4212 </r>
       <r>   -0.1065    0.3854 </r>
       <r>   -0.0934    0.3323 </r>
       <r>   -0.0455    0.1634 </r>
       <r>   -0.0437    0.1581 </r>
       <r>    0.0070    0.0385 </r>
       <r>    0.0283    0.0072 </r>
       <r>    0.0465   -0.0117 </r>
       <r>    0.0761   -0.0296 </r>
       <r>    0.0936   -0.0341 </r>
       <r>    0.1316   -0.0340 </r>
       <r>    0.1498   -0.0311 </r>
       <r>    0.1908   -0.0220 </r>
       <r>    0.1980   -0.0204 </r>
       <r>    0.2066   -0.0184 </r>
       <r>    0.2831   -0.0060 </r>
       <r>    0.3761   -0.0009 </r>
       <r>    0.3872   -0.0007 </r>
       <r>    0.4602   -0.0001 </r>
       <r>    0.4839   -0.0001 </r>
       <r>    0.5079   -0.0000 </r>
       <r>    0.6810   -0.0000 </r>
       <r>    0.6901   -0.0000 </r>
       <r>    0.7102   -0.0000 </r>
       <r>    0.7390   -0.0000 </r>
       <r>    0.7517   -0.0000 </r>
       <r>    0.8453   -0.0000 </r>
       <r>    0.9650   -0.0000 </r>
       <r>    0.9747   -0.0000 </r>
       <r>    0.9972   -0.0000 </r>
       <r>    1.0732   -0.0000 </r>
       <r>    1.0743   -0.0000 </r>
       <r>    1.1255   -0.0000 </r>
       <r>    1.1527   -0.0000 </r>
       <r>    1.2396   -0.0000 </r>
       <r>    1.2873   -0.0000 </r>
       <r>    3.3431   -0.0000 </r>
       <r>    4.1635   -0.0000 </r>
       <r>    4.6584   -0.0000 </r>
       <r>    5.2408    0.0000 </r>
      </set>
     </set>
    </set>
   </array>
  </eigenvalues>
  <separator name="orbital magnetization" >
   <v name="MAGDIPOLOUT">      0.00000000      0.00000000      0.00000000</v>
  </separator>
  <dos>
   <i name="efermi">     -0.13389998 </i>
   <total>
    <array>
     <dimension dim="1">gridpoints</dimension>
     <dimension dim="2">spin</dimension>
     <field>energy</field>
     <field>total</field>
     <field>integrated</field>
     <set>
      <set comment="spin 1">
       <r>   -25.8707     0.0000     0.0000 </r>
       <r>   -25.7603     0.0000     0.0000 </r>
       <r>   -25.6499     0.0000     0.0000 </r>
       <r>   -25.5396    -0.0000    -0.0000 </r>
       <r>   -25.4292    -0.0000    -0.0000 </r>
       <r>   -25.3188    -0.0000    -0.0000 </r>
       <r>   -25.2085    -0.0000    -0.0000 </r>
       <r>   -25.0981    -0.0000    -0.0000 </r>
       <r>   -24.9877    -0.0000    -0.0000 </r>
       <r>   -24.8773    -0.0000    -0.0000 </r>
       <r>   -24.7670    -0.0000    -0.0000 </r>
       <r>   -24.6566    -0.0000    -0.0000 </r>
       <r>   -24.5462    -0.0003    -0.0000 </r>
       <r>   -24.4359    -0.0073    -0.0008 </r>
       <r>   -24.3255    -0.0958    -0.0114 </r>
       <r>   -24.2151    -0.6029    -0.0779 </r>
       <r>   -24.1047    -1.4189    -0.2346 </r>
       <r>   -23.9944     1.5816    -0.0600 </r>
       <r>   -23.8840    14.5906     1.5504 </r>
       <r>   -23.7736    34.1494     5.3195 </r>
       <r>   -23.6633    52.1483    11.0752 </r>
       <r>   -23.5529    59.2050    17.6097 </r>
       <r>   -23.4425    46.3759    22.7283 </r>
       <r>   -23.3321    34.9873    26.5899 </r>
       <r>   -23.2218    47.6746    31.8518 </r>
       <r>   -23.1114    69.8348    39.5596 </r>
       <r>   -23.0010    76.2197    47.9721 </r>
       <r>   -22.8907    59.5097    54.5403 </r>
       <r>   -22.7803    40.0002    58.9551 </r>
       <r>   -22.6699    29.2748    62.1862 </r>
       <r>   -22.5595    15.6894    63.9179 </r>
       <r>   -22.4492     2.7402    64.2203 </r>
       <r>   -22.3388    -1.2172    64.0860 </r>
       <r>   -22.2284    -0.6510    64.0141 </r>
       <r>   -22.1181    -0.1175    64.0012 </r>
       <r>   -22.0077    -0.0101    64.0001 </r>
       <r>   -21.8973    -0.0005    64.0000 </r>
       <r>   -21.7869    -0.0000    64.0000 </r>
       <r>   -21.6766    -0.0000    64.0000 </r>
       <r>   -21.5662    -0.0000    64.0000 </r>
       <r>   -21.4558    -0.0000    64.0000 </r>
       <r>   -21.3455    -0.0000    64.0000 </r>
       <r>   -21.2351     0.0000    64.0000 </r>
       <r>   -21.1247     0.0000    64.0000 </r>
       <r>   -21.0143     0.0000    64.0000 </r>
       <r>   -20.9040     0.0000    64.0000 </r>
       <r>   -20.7936     0.0000    64.0000 </r>
       <r>   -20.6832     0.0000    64.0000 </r>
       <r>   -20.5729     0.0000    64.0000 </r>
       <r>   -20.4625     0.0000    64.0000 </r>
       <r>   -20.3521    -0.0000    64.0000 </r>
       <r>   -20.2417    -0.0000    64.0000 </r>
       <r>   -20.1314    -0.0000    64.0000 </r>
       <r>   -20.0210    -0.0000    64.0000 </r>
       <r>   -19.9106    -0.0000    64.0000 </r>
       <r>   -19.8003    -0.0000    64.0000 </r>
       <r>   -19.6899    -0.0000    64.0000 </r>
       <r>   -19.5795    -0.0000    64.0000 </r>
       <r>   -19.4691    -0.0001    64.0000 </r>
       <r>   -19.3588    -0.0023    63.9997 </r>
       <r>   -19.2484    -0.0426    63.9950 </r>
       <r>   -19.1380    -0.3849    63.9526 </r>
       <r>   -19.0277    -1.4093    63.7970 </r>
       <r>   -18.9173     0.2374    63.8232 </r>
       <r>   -18.8069    13.6058    65.3249 </r>
       <r>   -18.6965    30.6127    68.7037 </r>
       <r>   -18.5862    25.4714    71.5150 </r>
       <r>   -18.4758     6.8322    72.2691 </r>
       <r>   -18.3654    -1.2645    72.1295 </r>
       <r>   -18.2551    -0.9742    72.0220 </r>
       <r>   -18.1447    -0.1828    72.0018 </r>
       <r>   -18.0343    -0.0155    72.0001 </r>
       <r>   -17.9239    -0.0007    72.0000 </r>
       <r>   -17.8136    -0.0000    72.0000 </r>
       <r>   -17.7032    -0.0000    72.0000 </r>
       <r>   -17.5928    -0.0000    72.0000 </r>
       <r>   -17.4825    -0.0000    72.0000 </r>
       <r>   -17.3721    -0.0000    72.0000 </r>
       <r>   -17.2617     0.0000    72.0000 </r>
       <r>   -17.1513     0.0000    72.0000 </r>
       <r>   -17.0410     0.0000    72.0000 </r>
       <r>   -16.9306     0.0000    72.0000 </r>
       <r>   -16.8202     0.0000    72.0000 </r>
       <r>   -16.7099     0.0000    72.0000 </r>
       <r>   -16.5995     0.0000    72.0000 </r>
       <r>   -16.4891     0.0000    72.0000 </r>
       <r>   -16.3787     0.0000    72.0000 </r>
       <r>   -16.2684     0.0000    72.0000 </r>
       <r>   -16.1580     0.0000    72.0000 </r>
       <r>   -16.0476     0.0000    72.0000 </r>
       <r>   -15.9373     0.0000    72.0000 </r>
       <r>   -15.8269     0.0000    72.0000 </r>
       <r>   -15.7165     0.0000    72.0000 </r>
       <r>   -15.6061     0.0000    72.0000 </r>
       <r>   -15.4958     0.0000    72.0000 </r>
       <r>   -15.3854     0.0000    72.0000 </r>
       <r>   -15.2750     0.0000    72.0000 </r>
       <r>   -15.1647     0.0000    72.0000 </r>
       <r>   -15.0543     0.0000    72.0000 </r>
       <r>   -14.9439     0.0000    72.0000 </r>
       <r>   -14.8335     0.0000    72.0000 </r>
       <r>   -14.7232     0.0000    72.0000 </r>
       <r>   -14.6128     0.0000    72.0000 </r>
       <r>   -14.5024     0.0000    72.0000 </r>
       <r>   -14.3921     0.0000    72.0000 </r>
       <r>   -14.2817     0.0000    72.0000 </r>
       <r>   -14.1713     0.0000    72.0000 </r>
       <r>   -14.0609     0.0000    72.0000 </r>
       <r>   -13.9506     0.0000    72.0000 </r>
       <r>   -13.8402     0.0000    72.0000 </r>
       <r>   -13.7298     0.0000    72.0000 </r>
       <r>   -13.6195     0.0000    72.0000 </r>
       <r>   -13.5091     0.0000    72.0000 </r>
       <r>   -13.3987     0.0000    72.0000 </r>
       <r>   -13.2883     0.0000    72.0000 </r>
       <r>   -13.1780     0.0000    72.0000 </r>
       <r>   -13.0676     0.0000    72.0000 </r>
       <r>   -12.9572     0.0000    72.0000 </r>
       <r>   -12.8469     0.0000    72.0000 </r>
       <r>   -12.7365     0.0000    72.0000 </r>
       <r>   -12.6261     0.0000    72.0000 </r>
       <r>   -12.5157     0.0000    72.0000 </r>
       <r>   -12.4054     0.0000    72.0000 </r>
       <r>   -12.2950     0.0000    72.0000 </r>
       <r>   -12.1846     0.0000    72.0000 </r>
       <r>   -12.0743     0.0000    72.0000 </r>
       <r>   -11.9639     0.0000    72.0000 </r>
       <r>   -11.8535     0.0000    72.0000 </r>
       <r>   -11.7431     0.0000    72.0000 </r>
       <r>   -11.6328     0.0000    72.0000 </r>
       <r>   -11.5224     0.0000    72.0000 </r>
       <r>   -11.4120     0.0000    72.0000 </r>
       <r>   -11.3017     0.0000    72.0000 </r>
       <r>   -11.1913     0.0000    72.0000 </r>
       <r>   -11.0809     0.0000    72.0000 </r>
       <r>   -10.9705     0.0000    72.0000 </r>
       <r>   -10.8602     0.0000    72.0000 </r>
       <r>   -10.7498     0.0000    72.0000 </r>
       <r>   -10.6394     0.0000    72.0000 </r>
       <r>   -10.5291     0.0000    72.0000 </r>
       <r>   -10.4187     0.0000    72.0000 </r>
       <r>   -10.3083     0.0000    72.0000 </r>
       <r>   -10.1979     0.0000    72.0000 </r>
       <r>   -10.0876     0.0000    72.0000 </r>
       <r>    -9.9772     0.0000    72.0000 </r>
       <r>    -9.8668     0.0000    72.0000 </r>
       <r>    -9.7564     0.0000    72.0000 </r>
       <r>    -9.6461     0.0000    72.0000 </r>
       <r>    -9.5357     0.0000    72.0000 </r>
       <r>    -9.4253     0.0000    72.0000 </r>
       <r>    -9.3150     0.0000    72.0000 </r>
       <r>    -9.2046     0.0000    72.0000 </r>
       <r>    -9.0942     0.0000    72.0000 </r>
       <r>    -8.9838     0.0000    72.0000 </r>
       <r>    -8.8735     0.0000    72.0000 </r>
       <r>    -8.7631     0.0000    72.0000 </r>
       <r>    -8.6527    -0.0000    72.0000 </r>
       <r>    -8.5424    -0.0000    72.0000 </r>
       <r>    -8.4320    -0.0000    72.0000 </r>
       <r>    -8.3216    -0.0000    72.0000 </r>
       <r>    -8.2112    -0.0000    72.0000 </r>
       <r>    -8.1009    -0.0000    72.0000 </r>
       <r>    -7.9905    -0.0000    72.0000 </r>
       <r>    -7.8801    -0.0000    72.0000 </r>
       <r>    -7.7698    -0.0000    72.0000 </r>
       <r>    -7.6594    -0.0003    72.0000 </r>
       <r>    -7.5490    -0.0079    71.9991 </r>
       <r>    -7.4386    -0.0995    71.9881 </r>
       <r>    -7.3283    -0.5939    71.9226 </r>
       <r>    -7.2179    -1.2378    71.7859 </r>
       <r>    -7.1075     2.0429    72.0114 </r>
       <r>    -6.9972    14.3767    73.5982 </r>
       <r>    -6.8868    32.2997    77.1632 </r>
       <r>    -6.7764    45.2502    82.1575 </r>
       <r>    -6.6660    38.3912    86.3948 </r>
       <r>    -6.5557    18.8035    88.4702 </r>
       <r>    -6.4453    13.6592    89.9778 </r>
       <r>    -6.3349    22.9650    92.5124 </r>
       <r>    -6.2246    42.4816    97.2012 </r>
       <r>    -6.1142    69.6115   104.8843 </r>
       <r>    -6.0038    83.2853   114.0766 </r>
       <r>    -5.8934    83.1291   123.2517 </r>
       <r>    -5.7831    83.4996   132.4677 </r>
       <r>    -5.6727    86.9193   142.0611 </r>
       <r>    -5.5623    86.1593   151.5706 </r>
       <r>    -5.4520    68.7436   159.1579 </r>
       <r>    -5.3416    44.0927   164.0245 </r>
       <r>    -5.2312    36.6858   168.0736 </r>
       <r>    -5.1208    48.0114   173.3727 </r>
       <r>    -5.0105    56.4919   179.6078 </r>
       <r>    -4.9001    51.0471   185.2419 </r>
       <r>    -4.7897    44.2662   190.1276 </r>
       <r>    -4.6794    52.1222   195.8804 </r>
       <r>    -4.5690    71.7665   203.8014 </r>
       <r>    -4.4586    81.4151   212.7873 </r>
       <r>    -4.3482    75.2658   221.0945 </r>
       <r>    -4.2379    66.5925   228.4444 </r>
       <r>    -4.1275    66.5732   235.7922 </r>
       <r>    -4.0171    73.2686   243.8790 </r>
       <r>    -3.9068    76.8981   252.3663 </r>
       <r>    -3.7964    78.2471   261.0026 </r>
       <r>    -3.6860    72.9286   269.0518 </r>
       <r>    -3.5756    61.3923   275.8277 </r>
       <r>    -3.4653    53.5477   281.7379 </r>
       <r>    -3.3549    40.6855   286.2284 </r>
       <r>    -3.2445    17.4327   288.1525 </r>
       <r>    -3.1342     1.1784   288.2825 </r>
       <r>    -3.0238    -1.8053   288.0833 </r>
       <r>    -2.9134    -0.6536   288.0111 </r>
       <r>    -2.8030    -0.0941   288.0008 </r>
       <r>    -2.6927    -0.0066   288.0000 </r>
       <r>    -2.5823    -0.0002   288.0000 </r>
       <r>    -2.4719    -0.0000   288.0000 </r>
       <r>    -2.3616    -0.0000   288.0000 </r>
       <r>    -2.2512    -0.0000   288.0000 </r>
       <r>    -2.1408    -0.0000   288.0000 </r>
       <r>    -2.0304    -0.0000   288.0000 </r>
       <r>    -1.9201    -0.0000   288.0000 </r>
       <r>    -1.8097    -0.0000   288.0000 </r>
       <r>    -1.6993    -0.0000   288.0000 </r>
       <r>    -1.5890    -0.0000   288.0000 </r>
       <r>    -1.4786    -0.0017   287.9998 </r>
       <r>    -1.3682    -0.0344   287.9960 </r>
       <r>    -1.2578    -0.3623   287.9560 </r>
       <r>    -1.1475    -1.7976   287.7576 </r>
       <r>    -1.0371    -2.7765   287.4512 </r>
       <r>    -0.9267     8.2893   288.3661 </r>
       <r>    -0.8164    42.2982   293.0346 </r>
       <r>    -0.7060    83.5164   302.2524 </r>
       <r>    -0.5956   110.0652   314.4005 </r>
       <r>    -0.4852   129.6815   328.7136 </r>
       <r>    -0.3749   148.1158   345.0614 </r>
       <r>    -0.2645   143.6143   360.9123 </r>
       <r>    -0.1541   118.0927   373.9463 </r>
       <r>    -0.0438    92.5548   384.1617 </r>
       <r>     0.0666    79.2253   392.9060 </r>
       <r>     0.1770    71.0772   400.7508 </r>
       <r>     0.2874    54.9649   406.8174 </r>
       <r>     0.3977    41.2325   411.3683 </r>
       <r>     0.5081    36.1392   415.3570 </r>
       <r>     0.6185    35.0689   419.2276 </r>
       <r>     0.7288    40.9115   423.7431 </r>
       <r>     0.8392    40.8376   428.2504 </r>
       <r>     0.9496    38.3242   432.4803 </r>
       <r>     1.0600    46.0686   437.5650 </r>
       <r>     1.1703    47.1812   442.7724 </r>
       <r>     1.2807    32.9933   446.4139 </r>
       <r>     1.3911    14.2949   447.9917 </r>
       <r>     1.5014     1.9939   448.2118 </r>
       <r>     1.6118    -1.2011   448.0792 </r>
       <r>     1.7222    -0.6010   448.0129 </r>
       <r>     1.8326    -0.1070   448.0010 </r>
       <r>     1.9429    -0.0091   448.0000 </r>
       <r>     2.0533    -0.0004   448.0000 </r>
       <r>     2.1637    -0.0000   448.0000 </r>
       <r>     2.2740    -0.0000   448.0000 </r>
       <r>     2.3844    -0.0000   448.0000 </r>
       <r>     2.4948    -0.0000   448.0000 </r>
       <r>     2.6052    -0.0000   448.0000 </r>
       <r>     2.7155    -0.0007   447.9999 </r>
       <r>     2.8259    -0.0134   447.9984 </r>
       <r>     2.9363    -0.1154   447.9857 </r>
       <r>     3.0466    -0.3857   447.9431 </r>
       <r>     3.1570     0.2199   447.9674 </r>
       <r>     3.2674     3.9871   448.4074 </r>
       <r>     3.3778     7.9837   449.2886 </r>
       <r>     3.4881     5.8721   449.9367 </r>
       <r>     3.5985     1.2042   450.0696 </r>
       <r>     3.7089    -0.4437   450.0207 </r>
       <r>     3.8192    -0.4717   449.9686 </r>
       <r>     3.9296    -0.3466   449.9304 </r>
       <r>     4.0400     1.9390   450.1444 </r>
       <r>     4.1504     6.7287   450.8870 </r>
       <r>     4.2607     7.4394   451.7081 </r>
       <r>     4.3711     2.6129   451.9965 </r>
       <r>     4.4815     0.3016   452.0298 </r>
       <r>     4.5918     4.0767   452.4798 </r>
       <r>     4.7022     7.9864   453.3612 </r>
       <r>     4.8126     5.3768   453.9547 </r>
       <r>     4.9230     0.6026   454.0212 </r>
       <r>     5.0333    -0.4970   453.9663 </r>
       <r>     5.1437     2.8363   454.2794 </r>
       <r>     5.2541     7.5494   455.1126 </r>
       <r>     5.3644     6.7375   455.8562 </r>
       <r>     5.4748     1.9362   456.0699 </r>
       <r>     5.5852    -0.3148   456.0352 </r>
       <r>     5.6956    -0.2646   456.0060 </r>
       <r>     5.8059    -0.0499   456.0005 </r>
       <r>     5.9163    -0.0042   456.0000 </r>
       <r>     6.0267    -0.0002   456.0000 </r>
       <r>     6.1370    -0.0000   456.0000 </r>
       <r>     6.2474    -0.0000   456.0000 </r>
       <r>     6.3578    -0.0000   456.0000 </r>
       <r>     6.4682    -0.0000   456.0000 </r>
       <r>     6.5785     0.0000   456.0000 </r>
       <r>     6.6889     0.0000   456.0000 </r>
       <r>     6.7993     0.0000   456.0000 </r>
       <r>     6.9096     0.0000   456.0000 </r>
       <r>     7.0200     0.0000   456.0000 </r>
       <r>     7.1304     0.0000   456.0000 </r>
       <r>     7.2408     0.0000   456.0000 </r>
      </set>
     </set>
    </array>
   </total>
  </dos>
 </calculation>
 <structure name="finalpos" >
  <crystal>
   <varray name="basis" >
    <v>       9.40119100       0.00000000      -0.08412900 </v>
    <v>       0.00000000       5.35946700       0.00000000 </v>
    <v>       0.00000000       0.00000000      14.95565100 </v>
   </varray>
   <i name="volume">    753.54605297 </i>
   <varray name="rec_basis" >
    <v>       0.10636950       0.00000000       0.00000000 </v>
    <v>       0.00000000       0.18658572       0.00000000 </v>
    <v>       0.00059835       0.00000000       0.06686436 </v>
   </varray>
  </crystal>
  <varray name="positions" >
   <v>       0.16411200       0.48397600       0.17863700 </v>
   <v>       0.17101200       0.51602400       0.67995900 </v>
   <v>       0.66411200       0.98397600       0.17995900 </v>
   <v>       0.66411200       0.01602400       0.67995900 </v>
   <v>       0.17533200       0.47285200       0.97303200 </v>
   <v>       0.17533200       0.52345800       0.47303200 </v>
   <v>       0.67533200       0.97285200       0.97303200 </v>
   <v>       0.67533200       0.02714800       0.47303200 </v>
   <v>       0.33162900       0.02941400       0.82240100 </v>
   <v>       0.33162900       0.97058600       0.32240100 </v>
   <v>       0.83162900       0.52941400       0.82240100 </v>
   <v>       0.83162900       0.47058600       0.32240100 </v>
   <v>       0.33361900       0.00343500       0.51711500 </v>
   <v>       0.33361900       0.99568000       0.01711500 </v>
   <v>       0.83316100       0.50432000       0.51711500 </v>
   <v>       0.83361900       0.49568000       0.01711500 </v>
   <v>       0.30926400       0.26740800       0.92544800 </v>
   <v>       0.30926400       0.73259200       0.42544800 </v>
   <v>       0.80926400       0.76740800       0.92544800 </v>
   <v>       0.80926400       0.23259200       0.42544800 </v>
   <v>       0.00386100       0.36884200       0.24394900 </v>
   <v>       0.00386100       0.63115800       0.74394900 </v>
   <v>       0.49917000       0.86884200       0.24836300 </v>
   <v>       0.50386100       0.13115800       0.74394900 </v>
   <v>       0.03236700       0.39537700       0.57915900 </v>
   <v>       0.02591400       0.60462300       0.07915900 </v>
   <v>       0.52591400       0.89537700       0.57915900 </v>
   <v>       0.52591400       0.10462300       0.07922200 </v>
   <v>       0.17611800       0.21417000       0.08350500 </v>
   <v>       0.17611800       0.78583000       0.58350500 </v>
   <v>       0.67611800       0.71417000       0.08350500 </v>
   <v>       0.67611800       0.28583000       0.59084500 </v>
   <v>       0.18147400       0.20344500       0.73945400 </v>
   <v>       0.18147400       0.79655500       0.23945400 </v>
   <v>       0.68147400       0.70344500       0.73945400 </v>
   <v>       0.68147400       0.29655500       0.23945400 </v>
   <v>       0.18900300       0.20186000       0.42366300 </v>
   <v>       0.18900300       0.79814000       0.92366300 </v>
   <v>       0.68900300       0.70186000       0.42366300 </v>
   <v>       0.68900300       0.29814000       0.92366300 </v>
   <v>       0.29347700       0.34686800       0.57827500 </v>
   <v>       0.29347700       0.65313200       0.07827500 </v>
   <v>       0.79347700       0.84686800       0.57827500 </v>
   <v>       0.79501700       0.15313200       0.07827500 </v>
   <v>       0.30310600       0.30561100       0.25408300 </v>
   <v>       0.30310600       0.69438900       0.74801900 </v>
   <v>       0.80310600       0.80561100       0.24801900 </v>
   <v>       0.80310600       0.19438900       0.74801900 </v>
   <v>       0.49071400       0.13464800       0.42295500 </v>
   <v>       0.49071400       0.86535200       0.92295500 </v>
   <v>       0.99071400       0.63258100       0.42295500 </v>
   <v>       0.99071400       0.36535200       0.91635600 </v>
  </varray>
 </structure>
</modeling>
