<?xml version="1.0" encoding="ISO-8859-1"?>
<modeling>
 <generator>
  <i name="program" type="string">vasp </i>
  <i name="version" type="string">5.3.5  </i>
  <i name="subversion" type="string">31Mar14 (build Aug 29 2014 19:41:47) complex                          parallel </i>
  <i name="platform" type="string">LinuxIFC </i>
  <i name="date" type="string">2019 04 11 </i>
  <i name="time" type="string">16:25:08 </i>
 </generator>
 <incar>
  <i type="string" name="SYSTEM"> Fe6OF11_var_31</i>
  <i type="int" name="ISTART">     0</i>
  <i type="string" name="PREC">normal</i>
  <i type="string" name="ALGO"> VeryFast</i>
  <i type="int" name="ISPIN">     1</i>
  <i type="int" name="ICHARG">     2</i>
  <i type="int" name="NELM">   300</i>
  <i type="int" name="ISYM">     0</i>
  <i type="logical" name="LWAVE"> F  </i>
  <i type="int" name="NELM">   300</i>
 </incar>
 <kpoints>
  <generation param="Gamma">
   <v type="int" name="divisions">       1        1        1 </v>
   <v name="usershift">      0.00000000       0.00000000       0.00000000 </v>
   <v name="genvec1">      1.00000000       0.00000000       0.00000000 </v>
   <v name="genvec2">      0.00000000       1.00000000       0.00000000 </v>
   <v name="genvec3">      0.00000000       0.00000000       1.00000000 </v>
   <v name="shift">      0.00000000       0.00000000       0.00000000 </v>
  </generation>
  <varray name="kpointlist" >
   <v>       0.00000000       0.00000000       0.00000000 </v>
  </varray>
  <varray name="weights" >
   <v>       1.00000000 </v>
  </varray>
 </kpoints>
 <parameters>
  <separator name="general" >
   <i type="string" name="SYSTEM">Fe6OF11_var_31</i>
   <i type="logical" name="LCOMPAT"> F  </i>
  </separator>
  <separator name="electronic" >
   <i type="string" name="PREC">normal</i>
   <i name="ENMAX">    400.00000000</i>
   <i name="ENAUG">    613.61400000</i>
   <i name="EDIFF">      0.00010000</i>
   <i type="int" name="IALGO">    48</i>
   <i type="int" name="IWAVPR">    10</i>
   <i type="int" name="NBANDS">   160</i>
   <i name="NELECT">    262.00000000</i>
   <i type="int" name="TURBO">     0</i>
   <i type="int" name="IRESTART">     0</i>
   <i type="int" name="NREBOOT">     0</i>
   <i type="int" name="NMIN">     0</i>
   <i name="EREF">      0.00000000</i>
   <separator name="electronic smearing" >
    <i type="int" name="ISMEAR">     1</i>
    <i name="SIGMA">      0.20000000</i>
    <i name="KSPACING">      0.50000000</i>
    <i type="logical" name="KGAMMA"> T  </i>
   </separator>
   <separator name="electronic projectors" >
    <i type="logical" name="LREAL"> F  </i>
    <v name="ROPT">      0.00000000      0.00000000      0.00000000</v>
    <i type="int" name="LMAXPAW">  -100</i>
    <i type="int" name="LMAXMIX">     2</i>
    <i type="logical" name="NLSPLINE"> F  </i>
   </separator>
   <separator name="electronic startup" >
    <i type="int" name="ISTART">     0</i>
    <i type="int" name="ICHARG">     2</i>
    <i type="int" name="INIWAV">     1</i>
   </separator>
   <separator name="electronic spin" >
    <i type="int" name="ISPIN">     1</i>
    <i type="logical" name="LNONCOLLINEAR"> F  </i>
    <v name="MAGMOM">      1.00000000      1.00000000      1.00000000      1.00000000      1.00000000      1.00000000      1.00000000      1.00000000      1.00000000      1.00000000      1.00000000      1.00000000      1.00000000      1.00000000      1.00000000      1.00000000      1.00000000      1.00000000      1.00000000      1.00000000
      1.00000000      1.00000000      1.00000000      1.00000000      1.00000000      1.00000000      1.00000000      1.00000000      1.00000000      1.00000000      1.00000000      1.00000000      1.00000000      1.00000000      1.00000000      1.00000000</v>
    <i name="NUPDOWN">     -1.00000000</i>
    <i type="logical" name="LSORBIT"> F  </i>
    <v name="SAXIS">      0.00000000      0.00000000      1.00000000</v>
    <i type="logical" name="LSPIRAL"> F  </i>
    <v name="QSPIRAL">      0.00000000      0.00000000      0.00000000</v>
    <i type="logical" name="LZEROZ"> F  </i>
   </separator>
   <separator name="electronic exchange-correlation" >
    <i type="logical" name="LASPH"> F  </i>
    <i type="logical" name="LMETAGGA"> F  </i>
   </separator>
   <separator name="electronic convergence" >
    <i type="int" name="NELM">   300</i>
    <i type="int" name="NELMDL">   -12</i>
    <i type="int" name="NELMIN">     2</i>
    <i name="ENINI">    400.00000000</i>
    <separator name="electronic convergence detail" >
     <i type="logical" name="LDIAG"> T  </i>
     <i type="logical" name="LSUBROT"> F  </i>
     <i name="WEIMIN">      0.00000000</i>
     <i name="EBREAK">      0.00000016</i>
     <i name="DEPER">      0.30000000</i>
     <i type="int" name="NRMM">     4</i>
     <i name="TIME">      0.40000000</i>
    </separator>
   </separator>
   <separator name="electronic mixer" >
    <i name="AMIX">      0.40000000</i>
    <i name="BMIX">      1.00000000</i>
    <i name="AMIN">      0.10000000</i>
    <i name="AMIX_MAG">      1.60000000</i>
    <i name="BMIX_MAG">      1.00000000</i>
    <separator name="electronic mixer details" >
     <i type="int" name="IMIX">     4</i>
     <i type="int" name="MAXMIX">   -45</i>
     <i name="WC">    100.00000000</i>
     <i type="int" name="INIMIX">     1</i>
     <i type="int" name="MIXPRE">     1</i>
     <i type="int" name="MREMOVE">     5</i>
    </separator>
   </separator>
   <separator name="electronic dipolcorrection" >
    <i type="logical" name="LDIPOL"> F  </i>
    <i type="logical" name="LMONO"> F  </i>
    <i type="int" name="IDIPOL">     0</i>
    <i name="EPSILON">      1.00000000</i>
    <v name="DIPOL">   -100.00000000   -100.00000000   -100.00000000</v>
    <i name="EFIELD">      0.00000000</i>
   </separator>
  </separator>
  <separator name="grids" >
   <i type="int" name="NGX">    16</i>
   <i type="int" name="NGY">   108</i>
   <i type="int" name="NGZ">    36</i>
   <i type="int" name="NGXF">    32</i>
   <i type="int" name="NGYF">   216</i>
   <i type="int" name="NGZF">    72</i>
   <i type="logical" name="ADDGRID"> F  </i>
  </separator>
  <separator name="ionic" >
   <i type="int" name="NSW">     0</i>
   <i type="int" name="IBRION">    -1</i>
   <i type="int" name="ISIF">     2</i>
   <i name="PSTRESS">      0.00000000</i>
   <i name="EDIFFG">      0.00100000</i>
   <i type="int" name="NFREE">     0</i>
   <i name="POTIM">      0.50000000</i>
   <i name="SMASS">     -3.00000000</i>
   <i name="SCALEE">      1.00000000</i>
  </separator>
  <separator name="ionic md" >
   <i name="TEBEG">      0.00010000</i>
   <i name="TEEND">      0.00010000</i>
   <i type="int" name="NBLOCK">     1</i>
   <i type="int" name="KBLOCK">     1</i>
   <i type="int" name="NPACO">   256</i>
   <i name="APACO">     16.00000000</i>
  </separator>
  <separator name="symmetry" >
   <i type="int" name="ISYM">     0</i>
   <i name="SYMPREC">      0.00001000</i>
  </separator>
  <separator name="dos" >
   <i type="logical" name="LORBIT"> F  </i>
   <v name="RWIGS">     -1.00000000     -1.00000000     -1.00000000</v>
   <i type="int" name="NEDOS">   301</i>
   <i name="EMIN">     10.00000000</i>
   <i name="EMAX">    -10.00000000</i>
   <i name="EFERMI">      0.00000000</i>
  </separator>
  <separator name="writing" >
   <i type="int" name="NWRITE">     2</i>
   <i type="logical" name="LWAVE"> F  </i>
   <i type="logical" name="LCHARG"> T  </i>
   <i type="logical" name="LPARD"> F  </i>
   <i type="logical" name="LVTOT"> F  </i>
   <i type="logical" name="LVHAR"> F  </i>
   <i type="logical" name="LELF"> F  </i>
   <i type="logical" name="LOPTICS"> F  </i>
   <v name="STM">      0.00000000      0.00000000      0.00000000      0.00000000      0.00000000      0.00000000      0.00000000</v>
  </separator>
  <separator name="performance" >
   <i type="int" name="NPAR">     4</i>
   <i type="int" name="NSIM">     4</i>
   <i type="int" name="NBLK">    -1</i>
   <i type="logical" name="LPLANE"> T  </i>
   <i type="logical" name="LSCALAPACK"> T  </i>
   <i type="logical" name="LSCAAWARE"> F  </i>
   <i type="logical" name="LSCALU"> F  </i>
   <i type="logical" name="LASYNC"> F  </i>
   <i type="logical" name="LORBITALREAL"> F  </i>
  </separator>
  <separator name="miscellaneous" >
   <i type="int" name="IDIOT">     3</i>
   <i type="logical" name="LMUSIC"> F  </i>
   <v name="POMASS">     55.84700000     16.00000000     18.99800000</v>
   <v name="DARWINR">      0.00000000      0.00000000      0.00000000</v>
   <v name="DARWINV">      1.00000000      1.00000000      1.00000000</v>
   <i type="logical" name="LCORR"> T  </i>
  </separator>
  <i type="logical" name="GGA_COMPAT"> T  </i>
  <i type="logical" name="LBERRY"> F  </i>
  <i type="int" name="ICORELEVEL">     0</i>
  <i type="logical" name="LDAU"> F  </i>
  <i type="int" name="I_CONSTRAINED_M">     0</i>
  <separator name="electronic exchange-correlation" >
   <i type="string" name="GGA">--</i>
   <i type="int" name="VOSKOWN">     0</i>
   <i type="logical" name="LHFCALC"> F  </i>
   <i type="string" name="PRECFOCK"></i>
   <i type="logical" name="LSYMGRAD"> F  </i>
   <i type="logical" name="LHFONE"> F  </i>
   <i type="logical" name="LRHFCALC"> F  </i>
   <i type="logical" name="LTHOMAS"> F  </i>
   <i type="logical" name="LMODELHF"> F  </i>
   <i name="ENCUT4O">     -1.00000000</i>
   <i type="int" name="EXXOEP">     0</i>
   <i type="int" name="FOURORBIT">     0</i>
   <i name="AEXX">      0.00000000</i>
   <i name="HFALPHA">      0.00000000</i>
   <i name="MCALPHA">      0.00000000</i>
   <i name="ALDAX">      1.00000000</i>
   <i name="AGGAX">      1.00000000</i>
   <i name="ALDAC">      1.00000000</i>
   <i name="AGGAC">      1.00000000</i>
   <i type="int" name="NKREDX">     1</i>
   <i type="int" name="NKREDY">     1</i>
   <i type="int" name="NKREDZ">     1</i>
   <i type="logical" name="SHIFTRED"> F  </i>
   <i type="logical" name="ODDONLY"> F  </i>
   <i type="logical" name="EVENONLY"> F  </i>
   <i type="int" name="LMAXFOCK">     0</i>
   <i type="int" name="NMAXFOCKAE">     0</i>
   <i type="logical" name="LFOCKAEDFT"> F  </i>
   <i name="HFSCREEN">      0.00000000</i>
   <i name="HFSCREENC">      0.00000000</i>
   <i type="int" name="NBANDSGWLOW">     0</i>
  </separator>
  <separator name="vdW DFT" >
   <i type="logical" name="LUSE_VDW"> F  </i>
   <i name="Zab_VDW">     -0.84910000</i>
   <i name="PARAM1">      0.12340000</i>
   <i name="PARAM2">      1.00000000</i>
   <i name="PARAM3">      0.00000000</i>
  </separator>
  <separator name="model GW" >
   <i type="int" name="MODEL_GW">     0</i>
   <i name="MODEL_EPS0">      7.56646665</i>
   <i name="MODEL_ALPHA">      1.00000000</i>
  </separator>
  <separator name="linear response parameters" >
   <i type="logical" name="LEPSILON"> F  </i>
   <i type="logical" name="LRPA"> F  </i>
   <i type="logical" name="LNABLA"> F  </i>
   <i type="logical" name="LVEL"> F  </i>
   <i type="int" name="KINTER">     0</i>
   <i name="CSHIFT">      0.10000000</i>
   <i name="OMEGAMAX">     -1.00000000</i>
   <i name="DEG_THRESHOLD">      0.00200000</i>
  </separator>
  <separator name="orbital magnetization" >
   <i type="logical" name="NUCIND"> F  </i>
   <v name="MAGPOS">      0.00000000      0.00000000      0.00000000</v>
   <i type="logical" name="LNICSALL"> T  </i>
   <i type="logical" name="ORBITALMAG"> F  </i>
   <i type="logical" name="LMAGBLOCH"> F  </i>
   <i type="logical" name="LCHIMAG"> F  </i>
   <i type="logical" name="LGAUGE"> T  </i>
   <i type="int" name="MAGATOM">     0</i>
   <v name="MAGDIPOL">      0.00000000      0.00000000      0.00000000</v>
   <v name="AVECCONST">      0.00000000      0.00000000      0.00000000</v>
  </separator>
  <separator name="response functions" >
   <i type="logical" name="LADDER"> F  </i>
   <i type="logical" name="LFXC"> F  </i>
   <i type="logical" name="LHARTREE"> T  </i>
   <i type="int" name="IBSE">     0</i>
   <i type="logical" name="LTCTE"> F  </i>
   <i type="logical" name="LTETE"> F  </i>
   <i type="logical" name="LTRIPLET"> F  </i>
   <i type="logical" name="LFXCEPS"> F  </i>
   <i type="logical" name="LFXHEG"> F  </i>
   <i type="logical" name="L2ORDER"> F  </i>
   <i type="logical" name="LUSEW"> F  </i>
   <i name="ENCUTGW">     -2.00000000</i>
   <i name="ENCUTGWSOFT">     -2.00000000</i>
   <i name="ENCUTLF">     -1.00000000</i>
   <i type="int" name="LMAXMP2">    -1</i>
   <i name="SCISSOR">      0.00000000</i>
   <i type="int" name="NOMEGA">     0</i>
   <i type="int" name="NOMEGAR">     0</i>
   <i type="int" name="NBANDSGW">    -1</i>
   <i type="int" name="NBANDSO">    -1</i>
   <i type="int" name="NBANDSV">    -1</i>
   <i type="int" name="NELM">   300</i>
   <i type="int" name="DIM">     3</i>
   <i type="int" name="ANTIRES">     0</i>
   <i name="OMEGAMAX">    -30.00000000</i>
   <i name="OMEGAMIN">    -30.00000000</i>
   <i name="OMEGATL">   -200.00000000</i>
   <i type="int" name="OMEGAGRID">     0</i>
   <i name="CSHIFT">     -0.10000000</i>
   <i type="logical" name="SELFENERGY"> F  </i>
   <i type="logical" name="LSPECTRAL"> F  </i>
   <i type="logical" name="ODDONLYGW"> F  </i>
   <i type="logical" name="EVENONLYGW"> F  </i>
   <i type="int" name="NKREDLFX">     1</i>
   <i type="int" name="NKREDLFY">     1</i>
   <i type="int" name="NKREDLFZ">     1</i>
   <i type="int" name="MAXMEM">  1800</i>
   <i type="int" name="TELESCOPE">     0</i>
   <i type="int" name="TAUPAR">     1</i>
  </separator>
  <separator name="External order field" >
   <i name="OFIELD_KAPPA">      0.00000000</i>
   <v name="OFIELD_K">      0.00000000      0.00000000      0.00000000</v>
   <i name="OFIELD_Q6_NEAR">      0.00000000</i>
   <i name="OFIELD_Q6_FAR">      0.00000000</i>
   <i name="OFIELD_A">      0.00000000</i>
  </separator>
 </parameters>
 <atominfo>
  <atoms>      36 </atoms>
  <types>       3 </types>
  <array name="atoms" >
   <dimension dim="1">ion</dimension>
   <field type="string">element</field>
   <field type="int">atomtype</field>
   <set>
    <rc><c>Fe</c><c>   1</c></rc>
    <rc><c>Fe</c><c>   1</c></rc>
    <rc><c>Fe</c><c>   1</c></rc>
    <rc><c>Fe</c><c>   1</c></rc>
    <rc><c>Fe</c><c>   1</c></rc>
    <rc><c>Fe</c><c>   1</c></rc>
    <rc><c>Fe</c><c>   1</c></rc>
    <rc><c>Fe</c><c>   1</c></rc>
    <rc><c>Fe</c><c>   1</c></rc>
    <rc><c>Fe</c><c>   1</c></rc>
    <rc><c>Fe</c><c>   1</c></rc>
    <rc><c>Fe</c><c>   1</c></rc>
    <rc><c>O </c><c>   2</c></rc>
    <rc><c>O </c><c>   2</c></rc>
    <rc><c>F </c><c>   3</c></rc>
    <rc><c>F </c><c>   3</c></rc>
    <rc><c>F </c><c>   3</c></rc>
    <rc><c>F </c><c>   3</c></rc>
    <rc><c>F </c><c>   3</c></rc>
    <rc><c>F </c><c>   3</c></rc>
    <rc><c>F </c><c>   3</c></rc>
    <rc><c>F </c><c>   3</c></rc>
    <rc><c>F </c><c>   3</c></rc>
    <rc><c>F </c><c>   3</c></rc>
    <rc><c>F </c><c>   3</c></rc>
    <rc><c>F </c><c>   3</c></rc>
    <rc><c>F </c><c>   3</c></rc>
    <rc><c>F </c><c>   3</c></rc>
    <rc><c>F </c><c>   3</c></rc>
    <rc><c>F </c><c>   3</c></rc>
    <rc><c>F </c><c>   3</c></rc>
    <rc><c>F </c><c>   3</c></rc>
    <rc><c>F </c><c>   3</c></rc>
    <rc><c>F </c><c>   3</c></rc>
    <rc><c>F </c><c>   3</c></rc>
    <rc><c>F </c><c>   3</c></rc>
   </set>
  </array>
  <array name="atomtypes" >
   <dimension dim="1">type</dimension>
   <field type="int">atomspertype</field>
   <field type="string">element</field>
   <field>mass</field>
   <field>valence</field>
   <field type="string">pseudopotential</field>
   <set>
    <rc><c>  12</c><c>Fe</c><c>     55.84700000</c><c>      8.00000000</c><c>  PAW_PBE Fe 06Sep2000                  </c></rc>
    <rc><c>   2</c><c>O </c><c>     16.00000000</c><c>      6.00000000</c><c>  PAW_PBE O 08Apr2002                   </c></rc>
    <rc><c>  22</c><c>F </c><c>     18.99800000</c><c>      7.00000000</c><c>  PAW_PBE F 08Apr2002                   </c></rc>
   </set>
  </array>
 </atominfo>
 <structure name="initialpos" >
  <crystal>
   <varray name="basis" >
    <v>       3.25262800       0.00000000       0.00000000 </v>
    <v>       0.00000000      20.54938400       0.00000000 </v>
    <v>       0.00000000       0.00000000       6.79221100 </v>
   </varray>
   <i name="volume">    453.98799923 </i>
   <varray name="rec_basis" >
    <v>       0.30744370       0.00000000       0.00000000 </v>
    <v>       0.00000000       0.04866326       0.00000000 </v>
    <v>       0.00000000       0.00000000       0.14722746 </v>
   </varray>
  </crystal>
  <varray name="positions" >
   <v>       0.00000000       0.16671900       0.50139100 </v>
   <v>       0.00930900       0.83328100       0.50139100 </v>
   <v>       0.00000000       0.65862500       0.00139100 </v>
   <v>       0.00000000       0.33328100       0.00139100 </v>
   <v>       0.50000000       0.16602100       0.00000400 </v>
   <v>       0.50000000       0.83397900       0.00000400 </v>
   <v>       0.50000000       0.66492700       0.50000400 </v>
   <v>       0.50000000       0.33397900       0.50000400 </v>
   <v>       0.00490700       0.99734200       0.00434600 </v>
   <v>       0.00000000       0.50000000       0.51216200 </v>
   <v>       0.50000000       0.00312000       0.47446600 </v>
   <v>       0.50000000       0.50000000       0.97240000 </v>
   <v>       0.00000000       0.00000000       0.31436200 </v>
   <v>       0.00000000       0.50000000       0.80934300 </v>
   <v>       0.00000000       0.16816900       0.20329900 </v>
   <v>       0.99906800       0.83183100       0.20329900 </v>
   <v>       0.00000000       0.65969100       0.70329900 </v>
   <v>       0.00000000       0.33183100       0.70329900 </v>
   <v>       0.00000000       0.16838200       0.79934600 </v>
   <v>       0.99212800       0.83161800       0.79934600 </v>
   <v>       0.00000000       0.66838200       0.29934600 </v>
   <v>       0.00000000       0.33161800       0.29934600 </v>
   <v>       0.50000000       0.06837200       0.99633700 </v>
   <v>       0.50829400       0.93162800       0.99633700 </v>
   <v>       0.50000000       0.56837200       0.49633700 </v>
   <v>       0.50000000       0.43162800       0.49633700 </v>
   <v>       0.50000000       0.09818400       0.50567900 </v>
   <v>       0.50000000       0.90181600       0.50567900 </v>
   <v>       0.50000000       0.59818400       0.00607700 </v>
   <v>       0.50000000       0.40181600       0.00567900 </v>
   <v>       0.50000000       0.23406000       0.50152500 </v>
   <v>       0.50000000       0.76296000       0.50152500 </v>
   <v>       0.50952300       0.73406000       0.00152500 </v>
   <v>       0.50000000       0.26594000       0.00152500 </v>
   <v>       0.00000000       0.00000000       0.69474100 </v>
   <v>       0.00000000       0.50000000       0.19474100 </v>
  </varray>
 </structure>
 <calculation>
  <scstep>
   <time name="diag">    0.27    0.29</time>
   <time name="diis">    0.34    0.49</time>
   <time name="orth">    0.04    0.05</time>
   <time name="total">    0.99    1.28</time>
   <energy>
    <i name="alphaZ">    943.57652748 </i>
    <i name="ewald"> -15987.70300628 </i>
    <i name="hartreedc">  -6696.78110375 </i>
    <i name="XCdc">    902.23054157 </i>
    <i name="pawpsdc">  19213.82102697 </i>
    <i name="pawaedc"> -19422.08171028 </i>
    <i name="eentropy">      0.05971498 </i>
    <i name="bandstr">   1811.03533316 </i>
    <i name="atom">  22504.09828397 </i>
    <i name="e_fr_energy">   3268.25560782 </i>
    <i name="e_wo_entrp">   3268.19589283 </i>
    <i name="e_0_energy">   3268.23570282 </i>
   </energy>
  </scstep>
  <scstep>
   <time name="diag">    0.19    0.26</time>
   <time name="diis">    0.56    0.57</time>
   <time name="orth">    0.04    0.05</time>
   <time name="total">    0.80    0.89</time>
   <energy>
    <i name="e_fr_energy">   1024.91370338 </i>
    <i name="e_wo_entrp">   1024.85550786 </i>
    <i name="e_0_energy">   1024.89430487 </i>
   </energy>
  </scstep>
  <scstep>
   <time name="diag">    0.18    0.22</time>
   <time name="diis">    0.42    0.60</time>
   <time name="orth">    0.08    0.08</time>
   <time name="total">    0.69    0.92</time>
   <energy>
    <i name="e_fr_energy">    343.29862964 </i>
    <i name="e_wo_entrp">    343.29940400 </i>
    <i name="e_0_energy">    343.29888776 </i>
   </energy>
  </scstep>
  <scstep>
   <time name="diag">    0.22    0.22</time>
   <time name="diis">    0.53    0.53</time>
   <time name="orth">    0.16    0.16</time>
   <time name="total">    0.92    0.92</time>
   <energy>
    <i name="e_fr_energy">     65.43279733 </i>
    <i name="e_wo_entrp">     65.37577324 </i>
    <i name="e_0_energy">     65.41378930 </i>
   </energy>
  </scstep>
  <scstep>
   <time name="diag">    0.35    0.35</time>
   <time name="diis">    0.54    0.54</time>
   <time name="orth">    0.46    0.46</time>
   <time name="total">    1.35    1.35</time>
   <energy>
    <i name="e_fr_energy">    -91.56529695 </i>
    <i name="e_wo_entrp">    -91.66792602 </i>
    <i name="e_0_energy">    -91.59950664 </i>
   </energy>
  </scstep>
  <scstep>
   <time name="diag">    0.34    0.34</time>
   <time name="diis">    0.54    0.54</time>
   <time name="orth">    0.08    0.08</time>
   <time name="total">    0.95    0.95</time>
   <energy>
    <i name="e_fr_energy">   -161.15102271 </i>
    <i name="e_wo_entrp">   -161.26954767 </i>
    <i name="e_0_energy">   -161.19053103 </i>
   </energy>
  </scstep>
  <scstep>
   <time name="diag">    0.23    0.23</time>
   <time name="diis">    0.61    0.61</time>
   <time name="orth">    0.04    0.04</time>
   <time name="total">    0.88    0.88</time>
   <energy>
    <i name="e_fr_energy">   -195.55556064 </i>
    <i name="e_wo_entrp">   -195.73843271 </i>
    <i name="e_0_energy">   -195.61651800 </i>
   </energy>
  </scstep>
  <scstep>
   <time name="diag">    0.20    0.21</time>
   <time name="diis">    0.51    0.51</time>
   <time name="orth">    0.05    0.05</time>
   <time name="total">    0.77    0.77</time>
   <energy>
    <i name="e_fr_energy">   -208.66389324 </i>
    <i name="e_wo_entrp">   -208.89323151 </i>
    <i name="e_0_energy">   -208.74033933 </i>
   </energy>
  </scstep>
  <scstep>
   <time name="diag">    0.20    0.21</time>
   <time name="diis">    1.63    1.63</time>
   <time name="orth">    0.03    0.03</time>
   <time name="total">    1.86    1.86</time>
   <energy>
    <i name="e_fr_energy">   -221.77142440 </i>
    <i name="e_wo_entrp">   -222.01547186 </i>
    <i name="e_0_energy">   -221.85277355 </i>
   </energy>
  </scstep>
  <scstep>
   <time name="diag">    0.20    0.20</time>
   <time name="diis">    1.63    1.63</time>
   <time name="orth">    0.05    0.05</time>
   <time name="total">    1.87    1.88</time>
   <energy>
    <i name="e_fr_energy">   -222.13828001 </i>
    <i name="e_wo_entrp">   -222.31860134 </i>
    <i name="e_0_energy">   -222.19838712 </i>
   </energy>
  </scstep>
  <scstep>
   <time name="diag">    0.28    0.28</time>
   <time name="diis">    1.64    1.65</time>
   <time name="orth">    0.11    0.11</time>
   <time name="total">    2.03    2.04</time>
   <energy>
    <i name="e_fr_energy">   -222.48361946 </i>
    <i name="e_wo_entrp">   -222.64639995 </i>
    <i name="e_0_energy">   -222.53787962 </i>
   </energy>
  </scstep>
  <scstep>
   <time name="diag">    0.26    0.26</time>
   <time name="diis">    1.39    1.39</time>
   <time name="orth">    0.05    0.05</time>
   <time name="total">    1.79    1.79</time>
   <energy>
    <i name="e_fr_energy">   -222.58428949 </i>
    <i name="e_wo_entrp">   -222.73876313 </i>
    <i name="e_0_energy">   -222.63578070 </i>
   </energy>
  </scstep>
  <scstep>
   <time name="diag">    0.47    0.47</time>
   <time name="diis">    1.11    1.11</time>
   <time name="orth">    0.05    0.05</time>
   <time name="total">    1.78    1.78</time>
   <energy>
    <i name="e_fr_energy">   -207.40263465 </i>
    <i name="e_wo_entrp">   -207.43527928 </i>
    <i name="e_0_energy">   -207.41351619 </i>
   </energy>
  </scstep>
  <scstep>
   <time name="diag">    0.22    0.22</time>
   <time name="diis">    1.05    1.05</time>
   <time name="orth">    0.05    0.05</time>
   <time name="total">    1.48    1.48</time>
   <energy>
    <i name="e_fr_energy">   -241.72068701 </i>
    <i name="e_wo_entrp">   -241.48498877 </i>
    <i name="e_0_energy">   -241.64212093 </i>
   </energy>
  </scstep>
  <scstep>
   <time name="diag">    0.28    0.28</time>
   <time name="diis">    1.07    1.07</time>
   <time name="orth">    0.06    0.06</time>
   <time name="total">    1.62    1.62</time>
   <energy>
    <i name="e_fr_energy">   -249.72626268 </i>
    <i name="e_wo_entrp">   -249.69584681 </i>
    <i name="e_0_energy">   -249.71612406 </i>
   </energy>
  </scstep>
  <scstep>
   <time name="diag">    0.30    0.30</time>
   <time name="diis">    1.19    1.19</time>
   <time name="orth">    0.06    0.06</time>
   <time name="total">    1.78    1.78</time>
   <energy>
    <i name="e_fr_energy">   -207.33123737 </i>
    <i name="e_wo_entrp">   -207.17464267 </i>
    <i name="e_0_energy">   -207.27903914 </i>
   </energy>
  </scstep>
  <scstep>
   <time name="diag">    0.27    0.27</time>
   <time name="diis">    1.09    1.09</time>
   <time name="orth">    0.05    0.05</time>
   <time name="total">    1.78    1.78</time>
   <energy>
    <i name="e_fr_energy">   -211.05761660 </i>
    <i name="e_wo_entrp">   -210.93179394 </i>
    <i name="e_0_energy">   -211.01567572 </i>
   </energy>
  </scstep>
  <scstep>
   <time name="diag">    0.23    0.23</time>
   <time name="diis">    1.16    1.16</time>
   <time name="orth">    0.07    0.07</time>
   <time name="total">    1.79    1.79</time>
   <energy>
    <i name="e_fr_energy">   -262.59021894 </i>
    <i name="e_wo_entrp">   -262.50838445 </i>
    <i name="e_0_energy">   -262.56294077 </i>
   </energy>
  </scstep>
  <scstep>
   <time name="diag">    0.19    0.19</time>
   <time name="diis">    1.09    1.09</time>
   <time name="orth">    0.18    0.18</time>
   <time name="total">    1.65    1.65</time>
   <energy>
    <i name="e_fr_energy">   -228.78713455 </i>
    <i name="e_wo_entrp">   -228.68253890 </i>
    <i name="e_0_energy">   -228.75226934 </i>
   </energy>
  </scstep>
  <scstep>
   <time name="diag">    0.34    0.34</time>
   <time name="diis">    1.10    1.10</time>
   <time name="orth">    0.07    0.07</time>
   <time name="total">    1.78    1.79</time>
   <energy>
    <i name="e_fr_energy">   -215.81354918 </i>
    <i name="e_wo_entrp">   -215.92523050 </i>
    <i name="e_0_energy">   -215.85077628 </i>
   </energy>
  </scstep>
  <scstep>
   <time name="diag">    0.18    0.18</time>
   <time name="diis">    0.93    0.93</time>
   <time name="orth">    0.29    0.29</time>
   <time name="total">    1.58    1.59</time>
   <energy>
    <i name="e_fr_energy">   -223.95275405 </i>
    <i name="e_wo_entrp">   -223.91658874 </i>
    <i name="e_0_energy">   -223.94069894 </i>
   </energy>
  </scstep>
  <scstep>
   <time name="diag">    0.22    0.22</time>
   <time name="diis">    1.14    1.14</time>
   <time name="orth">    0.20    0.20</time>
   <time name="total">    1.84    1.84</time>
   <energy>
    <i name="e_fr_energy">   -233.08768325 </i>
    <i name="e_wo_entrp">   -233.04278026 </i>
    <i name="e_0_energy">   -233.07271559 </i>
   </energy>
  </scstep>
  <scstep>
   <time name="diag">    0.15    0.15</time>
   <time name="diis">    1.07    1.07</time>
   <time name="orth">    0.07    0.07</time>
   <time name="total">    1.53    1.53</time>
   <energy>
    <i name="e_fr_energy">   -216.08006407 </i>
    <i name="e_wo_entrp">   -215.99640853 </i>
    <i name="e_0_energy">   -216.05217889 </i>
   </energy>
  </scstep>
  <scstep>
   <time name="diag">    0.25    0.25</time>
   <time name="diis">    1.01    1.01</time>
   <time name="orth">    0.18    0.18</time>
   <time name="total">    1.62    1.62</time>
   <energy>
    <i name="e_fr_energy">   -203.99108898 </i>
    <i name="e_wo_entrp">   -204.03761547 </i>
    <i name="e_0_energy">   -204.00659781 </i>
   </energy>
  </scstep>
  <scstep>
   <time name="diag">    0.14    0.14</time>
   <time name="diis">    1.03    1.04</time>
   <time name="orth">    0.04    0.04</time>
   <time name="total">    1.45    1.45</time>
   <energy>
    <i name="e_fr_energy">   -207.15044537 </i>
    <i name="e_wo_entrp">   -207.20465998 </i>
    <i name="e_0_energy">   -207.16851691 </i>
   </energy>
  </scstep>
  <scstep>
   <time name="diag">    0.30    0.30</time>
   <time name="diis">    0.95    0.95</time>
   <time name="orth">    0.05    0.05</time>
   <time name="total">    1.51    1.51</time>
   <energy>
    <i name="e_fr_energy">   -198.92565897 </i>
    <i name="e_wo_entrp">   -198.90388555 </i>
    <i name="e_0_energy">   -198.91840117 </i>
   </energy>
  </scstep>
  <scstep>
   <time name="diag">    0.27    0.27</time>
   <time name="diis">    0.99    0.99</time>
   <time name="orth">    0.04    0.04</time>
   <time name="total">    1.51    1.51</time>
   <energy>
    <i name="e_fr_energy">   -196.06235460 </i>
    <i name="e_wo_entrp">   -196.11787379 </i>
    <i name="e_0_energy">   -196.08086100 </i>
   </energy>
  </scstep>
  <scstep>
   <time name="diag">    0.18    0.18</time>
   <time name="diis">    1.13    1.14</time>
   <time name="orth">    0.06    0.06</time>
   <time name="total">    1.59    1.59</time>
   <energy>
    <i name="e_fr_energy">   -193.05444670 </i>
    <i name="e_wo_entrp">   -192.99481687 </i>
    <i name="e_0_energy">   -193.03457009 </i>
   </energy>
  </scstep>
  <scstep>
   <time name="diag">    0.25    0.26</time>
   <time name="diis">    1.05    1.05</time>
   <time name="orth">    0.08    0.08</time>
   <time name="total">    1.71    1.71</time>
   <energy>
    <i name="e_fr_energy">   -192.04865237 </i>
    <i name="e_wo_entrp">   -192.20401605 </i>
    <i name="e_0_energy">   -192.10044026 </i>
   </energy>
  </scstep>
  <scstep>
   <time name="diag">    0.16    0.16</time>
   <time name="diis">    1.13    1.13</time>
   <time name="orth">    0.15    0.15</time>
   <time name="total">    1.57    1.58</time>
   <energy>
    <i name="e_fr_energy">   -190.51525669 </i>
    <i name="e_wo_entrp">   -190.44718171 </i>
    <i name="e_0_energy">   -190.49256503 </i>
   </energy>
  </scstep>
  <scstep>
   <time name="diag">    0.28    0.28</time>
   <time name="diis">    0.96    0.96</time>
   <time name="orth">    0.05    0.05</time>
   <time name="total">    1.60    1.60</time>
   <energy>
    <i name="e_fr_energy">   -189.68774804 </i>
    <i name="e_wo_entrp">   -189.65583330 </i>
    <i name="e_0_energy">   -189.67710979 </i>
   </energy>
  </scstep>
  <scstep>
   <time name="diag">    0.21    0.21</time>
   <time name="diis">    1.15    1.15</time>
   <time name="orth">    0.08    0.08</time>
   <time name="total">    1.65    1.65</time>
   <energy>
    <i name="e_fr_energy">   -189.58697001 </i>
    <i name="e_wo_entrp">   -189.56821597 </i>
    <i name="e_0_energy">   -189.58071867 </i>
   </energy>
  </scstep>
  <scstep>
   <time name="diag">    0.18    0.18</time>
   <time name="diis">    1.04    1.04</time>
   <time name="orth">    0.06    0.06</time>
   <time name="total">    1.48    1.48</time>
   <energy>
    <i name="e_fr_energy">   -189.31816410 </i>
    <i name="e_wo_entrp">   -189.29893929 </i>
    <i name="e_0_energy">   -189.31175583 </i>
   </energy>
  </scstep>
  <scstep>
   <time name="diag">    0.27    0.27</time>
   <time name="diis">    1.22    1.22</time>
   <time name="orth">    0.14    0.14</time>
   <time name="total">    1.94    1.95</time>
   <energy>
    <i name="e_fr_energy">   -189.29910275 </i>
    <i name="e_wo_entrp">   -189.28852572 </i>
    <i name="e_0_energy">   -189.29557707 </i>
   </energy>
  </scstep>
  <scstep>
   <time name="diag">    0.25    0.25</time>
   <time name="diis">    1.16    1.16</time>
   <time name="orth">    0.06    0.06</time>
   <time name="total">    1.65    1.65</time>
   <energy>
    <i name="e_fr_energy">   -189.23030918 </i>
    <i name="e_wo_entrp">   -189.22229095 </i>
    <i name="e_0_energy">   -189.22763644 </i>
   </energy>
  </scstep>
  <scstep>
   <time name="diag">    0.36    0.36</time>
   <time name="diis">    1.18    1.18</time>
   <time name="orth">    0.16    0.16</time>
   <time name="total">    1.96    1.96</time>
   <energy>
    <i name="e_fr_energy">   -189.23174552 </i>
    <i name="e_wo_entrp">   -189.21058214 </i>
    <i name="e_0_energy">   -189.22469106 </i>
   </energy>
  </scstep>
  <scstep>
   <time name="diag">    0.19    0.19</time>
   <time name="diis">    1.19    1.19</time>
   <time name="orth">    0.05    0.05</time>
   <time name="total">    1.73    1.73</time>
   <energy>
    <i name="e_fr_energy">   -189.14960463 </i>
    <i name="e_wo_entrp">   -189.17366749 </i>
    <i name="e_0_energy">   -189.15762558 </i>
   </energy>
  </scstep>
  <scstep>
   <time name="diag">    0.19    0.19</time>
   <time name="diis">    1.05    1.05</time>
   <time name="orth">    0.04    0.04</time>
   <time name="total">    1.71    1.71</time>
   <energy>
    <i name="e_fr_energy">   -189.13629539 </i>
    <i name="e_wo_entrp">   -189.12644081 </i>
    <i name="e_0_energy">   -189.13301053 </i>
   </energy>
  </scstep>
  <scstep>
   <time name="diag">    0.39    0.39</time>
   <time name="diis">    1.20    1.20</time>
   <time name="orth">    0.10    0.10</time>
   <time name="total">    1.93    1.93</time>
   <energy>
    <i name="e_fr_energy">   -189.11604420 </i>
    <i name="e_wo_entrp">   -189.12236075 </i>
    <i name="e_0_energy">   -189.11814972 </i>
   </energy>
  </scstep>
  <scstep>
   <time name="diag">    0.22    0.22</time>
   <time name="diis">    1.06    1.06</time>
   <time name="orth">    0.05    0.05</time>
   <time name="total">    1.56    1.56</time>
   <energy>
    <i name="e_fr_energy">   -189.09492684 </i>
    <i name="e_wo_entrp">   -189.09840768 </i>
    <i name="e_0_energy">   -189.09608712 </i>
   </energy>
  </scstep>
  <scstep>
   <time name="diag">    0.21    0.21</time>
   <time name="diis">    0.97    0.97</time>
   <time name="orth">    0.06    0.06</time>
   <time name="total">    1.53    1.53</time>
   <energy>
    <i name="e_fr_energy">   -189.09445744 </i>
    <i name="e_wo_entrp">   -189.09048121 </i>
    <i name="e_0_energy">   -189.09313203 </i>
   </energy>
  </scstep>
  <scstep>
   <time name="diag">    0.28    0.29</time>
   <time name="diis">    0.75    0.75</time>
   <time name="orth">    0.13    0.13</time>
   <time name="total">    1.34    1.35</time>
   <energy>
    <i name="e_fr_energy">   -189.08980337 </i>
    <i name="e_wo_entrp">   -189.09257607 </i>
    <i name="e_0_energy">   -189.09072761 </i>
   </energy>
  </scstep>
  <scstep>
   <time name="diag">    0.44    0.44</time>
   <time name="diis">    0.79    0.79</time>
   <time name="orth">    0.18    0.18</time>
   <time name="total">    1.63    1.64</time>
   <energy>
    <i name="e_fr_energy">   -189.08488994 </i>
    <i name="e_wo_entrp">   -189.09045068 </i>
    <i name="e_0_energy">   -189.08674352 </i>
   </energy>
  </scstep>
  <scstep>
   <time name="diag">    0.26    0.26</time>
   <time name="diis">    0.73    0.73</time>
   <time name="orth">    0.05    0.05</time>
   <time name="total">    1.31    1.31</time>
   <energy>
    <i name="e_fr_energy">   -189.08278778 </i>
    <i name="e_wo_entrp">   -189.09177525 </i>
    <i name="e_0_energy">   -189.08578360 </i>
   </energy>
  </scstep>
  <scstep>
   <time name="diag">    0.21    0.21</time>
   <time name="diis">    0.70    0.70</time>
   <time name="orth">    0.06    0.06</time>
   <time name="total">    1.18    1.18</time>
   <energy>
    <i name="e_fr_energy">   -189.08007529 </i>
    <i name="e_wo_entrp">   -189.09141229 </i>
    <i name="e_0_energy">   -189.08385429 </i>
   </energy>
  </scstep>
  <scstep>
   <time name="diag">    0.19    0.19</time>
   <time name="diis">    0.79    0.79</time>
   <time name="orth">    0.08    0.08</time>
   <time name="total">    1.27    1.27</time>
   <energy>
    <i name="e_fr_energy">   -189.07736244 </i>
    <i name="e_wo_entrp">   -189.09173399 </i>
    <i name="e_0_energy">   -189.08215296 </i>
   </energy>
  </scstep>
  <scstep>
   <time name="diag">    0.14    0.14</time>
   <time name="diis">    0.66    0.66</time>
   <time name="orth">    0.04    0.04</time>
   <time name="total">    1.17    1.17</time>
   <energy>
    <i name="e_fr_energy">   -189.07629068 </i>
    <i name="e_wo_entrp">   -189.09233721 </i>
    <i name="e_0_energy">   -189.08163953 </i>
   </energy>
  </scstep>
  <scstep>
   <time name="diag">    0.17    0.17</time>
   <time name="diis">    0.56    0.57</time>
   <time name="orth">    0.06    0.06</time>
   <time name="total">    1.05    1.06</time>
   <energy>
    <i name="e_fr_energy">   -189.07557228 </i>
    <i name="e_wo_entrp">   -189.09299616 </i>
    <i name="e_0_energy">   -189.08138024 </i>
   </energy>
  </scstep>
  <scstep>
   <time name="diag">    0.26    0.26</time>
   <time name="diis">    0.53    0.53</time>
   <time name="orth">    0.06    0.06</time>
   <time name="total">    1.10    1.10</time>
   <energy>
    <i name="e_fr_energy">   -189.07536664 </i>
    <i name="e_wo_entrp">   -189.09243224 </i>
    <i name="e_0_energy">   -189.08105518 </i>
   </energy>
  </scstep>
  <scstep>
   <time name="diag">    0.26    0.26</time>
   <time name="diis">    0.74    0.74</time>
   <time name="orth">    0.07    0.07</time>
   <time name="total">    1.32    1.32</time>
   <energy>
    <i name="e_fr_energy">   -189.07525918 </i>
    <i name="e_wo_entrp">   -189.09452628 </i>
    <i name="e_0_energy">   -189.08168154 </i>
   </energy>
  </scstep>
  <scstep>
   <time name="diag">    0.11    0.12</time>
   <time name="diis">    0.51    0.51</time>
   <time name="orth">    0.03    0.03</time>
   <time name="total">    0.84    0.84</time>
   <energy>
    <i name="alphaZ">    943.57652748 </i>
    <i name="ewald"> -15987.70300628 </i>
    <i name="hartreedc">  -6855.30722046 </i>
    <i name="XCdc">    918.53553387 </i>
    <i name="pawpsdc">  22424.85521670 </i>
    <i name="pawaedc"> -22635.25403265 </i>
    <i name="eentropy">      0.01825584 </i>
    <i name="bandstr">  -1501.89477056 </i>
    <i name="atom">  22504.09828397 </i>
    <i name="e_fr_energy">   -189.07521209 </i>
    <i name="e_wo_entrp">   -189.09346793 </i>
    <i name="e_0_energy">   -189.08129737 </i>
   </energy>
  </scstep>
  <structure>
   <crystal>
    <varray name="basis" >
     <v>       3.25262800       0.00000000       0.00000000 </v>
     <v>       0.00000000      20.54938400       0.00000000 </v>
     <v>       0.00000000       0.00000000       6.79221100 </v>
    </varray>
    <i name="volume">    453.98799923 </i>
    <varray name="rec_basis" >
     <v>       0.30744370       0.00000000       0.00000000 </v>
     <v>       0.00000000       0.04866326       0.00000000 </v>
     <v>       0.00000000       0.00000000       0.14722746 </v>
    </varray>
   </crystal>
   <varray name="positions" >
    <v>       0.00000000       0.16671900       0.50139100 </v>
    <v>       0.00930900       0.83328100       0.50139100 </v>
    <v>       0.00000000       0.65862500       0.00139100 </v>
    <v>       0.00000000       0.33328100       0.00139100 </v>
    <v>       0.50000000       0.16602100       0.00000400 </v>
    <v>       0.50000000       0.83397900       0.00000400 </v>
    <v>       0.50000000       0.66492700       0.50000400 </v>
    <v>       0.50000000       0.33397900       0.50000400 </v>
    <v>       0.00490700       0.99734200       0.00434600 </v>
    <v>       0.00000000       0.50000000       0.51216200 </v>
    <v>       0.50000000       0.00312000       0.47446600 </v>
    <v>       0.50000000       0.50000000       0.97240000 </v>
    <v>       0.00000000       0.00000000       0.31436200 </v>
    <v>       0.00000000       0.50000000       0.80934300 </v>
    <v>       0.00000000       0.16816900       0.20329900 </v>
    <v>       0.99906800       0.83183100       0.20329900 </v>
    <v>       0.00000000       0.65969100       0.70329900 </v>
    <v>       0.00000000       0.33183100       0.70329900 </v>
    <v>       0.00000000       0.16838200       0.79934600 </v>
    <v>       0.99212800       0.83161800       0.79934600 </v>
    <v>       0.00000000       0.66838200       0.29934600 </v>
    <v>       0.00000000       0.33161800       0.29934600 </v>
    <v>       0.50000000       0.06837200       0.99633700 </v>
    <v>       0.50829400       0.93162800       0.99633700 </v>
    <v>       0.50000000       0.56837200       0.49633700 </v>
    <v>       0.50000000       0.43162800       0.49633700 </v>
    <v>       0.50000000       0.09818400       0.50567900 </v>
    <v>       0.50000000       0.90181600       0.50567900 </v>
    <v>       0.50000000       0.59818400       0.00607700 </v>
    <v>       0.50000000       0.40181600       0.00567900 </v>
    <v>       0.50000000       0.23406000       0.50152500 </v>
    <v>       0.50000000       0.76296000       0.50152500 </v>
    <v>       0.50952300       0.73406000       0.00152500 </v>
    <v>       0.50000000       0.26594000       0.00152500 </v>
    <v>       0.00000000       0.00000000       0.69474100 </v>
    <v>       0.00000000       0.50000000       0.19474100 </v>
   </varray>
  </structure>
  <varray name="forces" >
   <v>      -0.00072021      -0.00296713       0.06663757 </v>
   <v>      -0.37938198      -0.01322381       0.02650558 </v>
   <v>       0.05771672       1.44336611       0.06214210 </v>
   <v>      -0.00080398       0.07532973       0.06563110 </v>
   <v>      -0.00724210       0.24837519       0.08020160 </v>
   <v>      -0.07384541      -0.50867641       0.09628746 </v>
   <v>      -0.02087570       0.12623933       0.09760397 </v>
   <v>      -0.00020347      -0.27643827       0.07331400 </v>
   <v>      -0.06093315       0.49023215       1.25928431 </v>
   <v>      -0.00024586      -0.01732734       1.10386731 </v>
   <v>      -0.05652673      -0.63747994      -0.29215702 </v>
   <v>       0.00465109      -0.24544072      -0.22257854 </v>
   <v>       0.07298649       0.10474418      -0.82181165 </v>
   <v>      -0.00010794       0.06879916      -0.76038691 </v>
   <v>       0.00003929      -0.18117844      -0.21676423 </v>
   <v>       0.22097051       0.23764115      -0.21069217 </v>
   <v>       0.00463804       0.02708122      -0.21955712 </v>
   <v>       0.00004288       0.18827305      -0.21127021 </v>
   <v>       0.00046585      -0.18386497       0.14888104 </v>
   <v>       0.29568067       0.23381090       0.13577284 </v>
   <v>       0.00799233      -0.36377082       0.15653947 </v>
   <v>       0.00001536       0.18864821       0.14591208 </v>
   <v>       0.00587633      -0.63234446       0.07515816 </v>
   <v>      -0.11315404       0.35256437       0.06447683 </v>
   <v>       0.00680915      -0.62656352       0.12870070 </v>
   <v>      -0.00075726       0.50558323       0.18529076 </v>
   <v>       0.00538588       0.91071646      -0.14292752 </v>
   <v>       0.07184874      -0.85423357      -0.16332277 </v>
   <v>      -0.03381223       0.12809865      -0.15928321 </v>
   <v>      -0.00139492      -0.84477003      -0.18393395 </v>
   <v>       0.00014643      -0.39382815      -0.02781096 </v>
   <v>       0.06169090       0.61700405       0.01459518 </v>
   <v>      -0.13293626      -0.74933269      -0.07453810 </v>
   <v>       0.00203490       0.38531810      -0.02875952 </v>
   <v>       0.06353377       0.14098814      -0.06710393 </v>
   <v>       0.00041587       0.05862692      -0.18390426 </v>
  </varray>
  <varray name="stress" >
   <v>    -244.68879188       0.15652059       0.49380924 </v>
   <v>       0.15651784    -254.73895343      -0.13560441 </v>
   <v>       0.49380820      -0.13560342    -286.36370897 </v>
  </varray>
  <energy>
   <i name="e_fr_energy">   -189.07521209 </i>
   <i name="e_wo_entrp">   -189.08129737 </i>
   <i name="e_0_energy">      0.01825584 </i>
  </energy>
  <time name="totalsc">   78.59   80.15</time>
  <eigenvalues>
   <array>
    <dimension dim="1">band</dimension>
    <dimension dim="2">kpoint</dimension>
    <dimension dim="3">spin</dimension>
    <field>eigene</field>
    <field>occ</field>
    <set>
     <set comment="spin 1">
      <set comment="kpoint 1">
       <r>  -22.9679    1.0000 </r>
       <r>  -22.7358    1.0000 </r>
       <r>  -22.6385    1.0000 </r>
       <r>  -22.5892    1.0000 </r>
       <r>  -22.5543    1.0000 </r>
       <r>  -22.4326    1.0000 </r>
       <r>  -22.4240    1.0000 </r>
       <r>  -22.3433    1.0000 </r>
       <r>  -22.3164    1.0000 </r>
       <r>  -22.2720    1.0000 </r>
       <r>  -22.2586    1.0000 </r>
       <r>  -22.2475    1.0000 </r>
       <r>  -22.2194    1.0000 </r>
       <r>  -22.2100    1.0000 </r>
       <r>  -22.1782    1.0000 </r>
       <r>  -22.1567    1.0000 </r>
       <r>  -22.1464    1.0000 </r>
       <r>  -22.0099    1.0000 </r>
       <r>  -21.9685    1.0000 </r>
       <r>  -21.6335    1.0000 </r>
       <r>  -21.1593    1.0000 </r>
       <r>  -21.0521    1.0000 </r>
       <r>  -16.5259    1.0000 </r>
       <r>  -16.3801    1.0000 </r>
       <r>   -6.1882    1.0000 </r>
       <r>   -6.0698    1.0000 </r>
       <r>   -5.9248    1.0000 </r>
       <r>   -5.8358    1.0000 </r>
       <r>   -5.7220    1.0000 </r>
       <r>   -5.5375    1.0000 </r>
       <r>   -5.4677    1.0000 </r>
       <r>   -5.4335    1.0000 </r>
       <r>   -5.2538    1.0000 </r>
       <r>   -5.0794    1.0000 </r>
       <r>   -4.7950    1.0000 </r>
       <r>   -4.6430    1.0000 </r>
       <r>   -4.5858    1.0000 </r>
       <r>   -4.5409    1.0000 </r>
       <r>   -4.4565    1.0000 </r>
       <r>   -4.4360    1.0000 </r>
       <r>   -4.4051    1.0000 </r>
       <r>   -4.3370    1.0000 </r>
       <r>   -4.3299    1.0000 </r>
       <r>   -4.3139    1.0000 </r>
       <r>   -4.3042    1.0000 </r>
       <r>   -4.3019    1.0000 </r>
       <r>   -4.2990    1.0000 </r>
       <r>   -4.2833    1.0000 </r>
       <r>   -4.2661    1.0000 </r>
       <r>   -4.2627    1.0000 </r>
       <r>   -4.2051    1.0000 </r>
       <r>   -4.2011    1.0000 </r>
       <r>   -4.1863    1.0000 </r>
       <r>   -4.1489    1.0000 </r>
       <r>   -4.1354    1.0000 </r>
       <r>   -4.0898    1.0000 </r>
       <r>   -4.0481    1.0000 </r>
       <r>   -4.0334    1.0000 </r>
       <r>   -4.0192    1.0000 </r>
       <r>   -3.9981    1.0000 </r>
       <r>   -3.9670    1.0000 </r>
       <r>   -3.8555    1.0000 </r>
       <r>   -3.8068    1.0000 </r>
       <r>   -3.6693    1.0000 </r>
       <r>   -3.6163    1.0000 </r>
       <r>   -3.5725    1.0000 </r>
       <r>   -3.5693    1.0000 </r>
       <r>   -3.5142    1.0000 </r>
       <r>   -3.4790    1.0000 </r>
       <r>   -3.4265    1.0000 </r>
       <r>   -3.3930    1.0000 </r>
       <r>   -3.3429    1.0000 </r>
       <r>   -3.2907    1.0000 </r>
       <r>   -3.2618    1.0000 </r>
       <r>   -3.2344    1.0000 </r>
       <r>   -3.1627    1.0000 </r>
       <r>   -3.1436    1.0000 </r>
       <r>   -3.1386    1.0000 </r>
       <r>   -3.1072    1.0000 </r>
       <r>   -3.0862    1.0000 </r>
       <r>   -3.0689    1.0000 </r>
       <r>   -2.9947    1.0000 </r>
       <r>   -2.9056    1.0000 </r>
       <r>   -2.8919    1.0000 </r>
       <r>   -2.8379    1.0000 </r>
       <r>   -2.7428    1.0000 </r>
       <r>   -2.6364    1.0000 </r>
       <r>   -2.3748    1.0000 </r>
       <r>   -2.1430    1.0000 </r>
       <r>   -2.0996    1.0000 </r>
       <r>   -2.0822    1.0000 </r>
       <r>   -2.0741    1.0000 </r>
       <r>   -1.8745    1.0000 </r>
       <r>   -1.8115    1.0000 </r>
       <r>   -1.3215    1.0000 </r>
       <r>   -1.1488    1.0000 </r>
       <r>    0.8269    1.0000 </r>
       <r>    0.8748    1.0000 </r>
       <r>    0.9199    1.0000 </r>
       <r>    0.9371    1.0000 </r>
       <r>    0.9581    1.0000 </r>
       <r>    0.9740    1.0000 </r>
       <r>    1.0024    1.0000 </r>
       <r>    1.0136    1.0000 </r>
       <r>    1.0199    1.0000 </r>
       <r>    1.0420    1.0000 </r>
       <r>    1.0808    1.0000 </r>
       <r>    1.0987    1.0000 </r>
       <r>    1.1500    1.0000 </r>
       <r>    1.1772    1.0000 </r>
       <r>    1.1838    1.0000 </r>
       <r>    1.2038    1.0000 </r>
       <r>    1.2059    1.0000 </r>
       <r>    1.2436    1.0001 </r>
       <r>    1.2587    1.0001 </r>
       <r>    1.2726    1.0002 </r>
       <r>    1.2835    1.0002 </r>
       <r>    1.3073    1.0004 </r>
       <r>    1.3095    1.0004 </r>
       <r>    1.3546    1.0012 </r>
       <r>    1.3650    1.0015 </r>
       <r>    1.3928    1.0027 </r>
       <r>    1.3944    1.0028 </r>
       <r>    1.5006    1.0160 </r>
       <r>    1.5503    1.0271 </r>
       <r>    1.6129    1.0354 </r>
       <r>    1.6842    1.0002 </r>
       <r>    1.6967    0.9848 </r>
       <r>    1.7623    0.8427 </r>
       <r>    1.7918    0.7452 </r>
       <r>    1.8288    0.6005 </r>
       <r>    1.8465    0.5267 </r>
       <r>    1.9039    0.2911 </r>
       <r>    1.9725    0.0805 </r>
       <r>    1.9770    0.0706 </r>
       <r>    2.0609   -0.0288 </r>
       <r>    2.0919   -0.0353 </r>
       <r>    2.1215   -0.0336 </r>
       <r>    2.1314   -0.0320 </r>
       <r>    2.1555   -0.0270 </r>
       <r>    2.1625   -0.0254 </r>
       <r>    2.1743   -0.0227 </r>
       <r>    2.2406   -0.0097 </r>
       <r>    2.2449   -0.0091 </r>
       <r>    2.2788   -0.0051 </r>
       <r>    2.3762   -0.0007 </r>
       <r>    2.4025   -0.0004 </r>
       <r>    2.4100   -0.0003 </r>
       <r>    2.4189   -0.0002 </r>
       <r>    2.4585   -0.0001 </r>
       <r>    2.5657   -0.0000 </r>
       <r>    2.9274   -0.0000 </r>
       <r>    3.1026   -0.0000 </r>
       <r>    3.2284   -0.0000 </r>
       <r>    3.2607   -0.0000 </r>
       <r>    3.2849   -0.0000 </r>
       <r>    4.1255   -0.0000 </r>
       <r>    4.6334   -0.0000 </r>
       <r>    4.9225   -0.0000 </r>
       <r>    6.2893   -0.0000 </r>
      </set>
     </set>
    </set>
   </array>
  </eigenvalues>
  <separator name="orbital magnetization" >
   <v name="MAGDIPOLOUT">      0.00000000      0.00000000      0.00000000</v>
  </separator>
  <dos>
   <i name="efermi">      1.85277386 </i>
   <total>
    <array>
     <dimension dim="1">gridpoints</dimension>
     <dimension dim="2">spin</dimension>
     <field>energy</field>
     <field>total</field>
     <field>integrated</field>
     <set>
      <set comment="spin 1">
       <r>   -24.9679     0.0000     0.0000 </r>
       <r>   -24.8571     0.0000     0.0000 </r>
       <r>   -24.7462     0.0000     0.0000 </r>
       <r>   -24.6354    -0.0000    -0.0000 </r>
       <r>   -24.5245    -0.0000    -0.0000 </r>
       <r>   -24.4136    -0.0000    -0.0000 </r>
       <r>   -24.3028    -0.0000    -0.0000 </r>
       <r>   -24.1919    -0.0000    -0.0000 </r>
       <r>   -24.0811    -0.0000    -0.0000 </r>
       <r>   -23.9702    -0.0000    -0.0000 </r>
       <r>   -23.8594    -0.0000    -0.0000 </r>
       <r>   -23.7485    -0.0000    -0.0000 </r>
       <r>   -23.6376    -0.0002    -0.0000 </r>
       <r>   -23.5268    -0.0049    -0.0006 </r>
       <r>   -23.4159    -0.0567    -0.0068 </r>
       <r>   -23.3051    -0.2883    -0.0388 </r>
       <r>   -23.1942    -0.3199    -0.0743 </r>
       <r>   -23.0834     1.8971     0.1360 </r>
       <r>   -22.9725     6.1423     0.8169 </r>
       <r>   -22.8616     7.9888     1.7026 </r>
       <r>   -22.7508    11.5126     2.9788 </r>
       <r>   -22.6399    21.4643     5.3583 </r>
       <r>   -22.5291    29.1724     8.5923 </r>
       <r>   -22.4182    36.1424    12.5989 </r>
       <r>   -22.3074    55.6288    18.7658 </r>
       <r>   -22.1965    72.4208    26.7942 </r>
       <r>   -22.0856    58.9050    33.3243 </r>
       <r>   -21.9748    30.3597    36.6899 </r>
       <r>   -21.8639    11.2173    37.9334 </r>
       <r>   -21.7531     3.8048    38.3552 </r>
       <r>   -21.6422     5.7994    38.9981 </r>
       <r>   -21.5314     6.6589    39.7363 </r>
       <r>   -21.4205     2.0853    39.9674 </r>
       <r>   -21.3096     0.4858    40.0213 </r>
       <r>   -21.1988     6.4799    40.7396 </r>
       <r>   -21.0879    13.7711    42.2663 </r>
       <r>   -20.9771    12.1632    43.6146 </r>
       <r>   -20.8662     4.2938    44.0907 </r>
       <r>   -20.7554    -0.1706    44.0717 </r>
       <r>   -20.6445    -0.5049    44.0158 </r>
       <r>   -20.5336    -0.1277    44.0016 </r>
       <r>   -20.4228    -0.0138    44.0001 </r>
       <r>   -20.3119    -0.0007    44.0000 </r>
       <r>   -20.2011    -0.0000    44.0000 </r>
       <r>   -20.0902    -0.0000    44.0000 </r>
       <r>   -19.9793    -0.0000    44.0000 </r>
       <r>   -19.8685    -0.0000    44.0000 </r>
       <r>   -19.7576    -0.0000    44.0000 </r>
       <r>   -19.6468     0.0000    44.0000 </r>
       <r>   -19.5359     0.0000    44.0000 </r>
       <r>   -19.4251     0.0000    44.0000 </r>
       <r>   -19.3142     0.0000    44.0000 </r>
       <r>   -19.2033     0.0000    44.0000 </r>
       <r>   -19.0925     0.0000    44.0000 </r>
       <r>   -18.9816     0.0000    44.0000 </r>
       <r>   -18.8708     0.0000    44.0000 </r>
       <r>   -18.7599     0.0000    44.0000 </r>
       <r>   -18.6491     0.0000    44.0000 </r>
       <r>   -18.5382     0.0000    44.0000 </r>
       <r>   -18.4273     0.0000    44.0000 </r>
       <r>   -18.3165     0.0000    44.0000 </r>
       <r>   -18.2056    -0.0000    44.0000 </r>
       <r>   -18.0948    -0.0000    44.0000 </r>
       <r>   -17.9839    -0.0000    44.0000 </r>
       <r>   -17.8731    -0.0000    44.0000 </r>
       <r>   -17.7622    -0.0000    44.0000 </r>
       <r>   -17.6513    -0.0000    44.0000 </r>
       <r>   -17.5405    -0.0000    44.0000 </r>
       <r>   -17.4296    -0.0000    44.0000 </r>
       <r>   -17.3188    -0.0000    44.0000 </r>
       <r>   -17.2079    -0.0001    44.0000 </r>
       <r>   -17.0971    -0.0036    43.9996 </r>
       <r>   -16.9862    -0.0461    43.9945 </r>
       <r>   -16.8753    -0.2718    43.9643 </r>
       <r>   -16.7645    -0.4992    43.9090 </r>
       <r>   -16.6536     1.3716    44.0610 </r>
       <r>   -16.5428     7.3073    44.8711 </r>
       <r>   -16.4319    12.7438    46.2839 </r>
       <r>   -16.3211    11.2536    47.5314 </r>
       <r>   -16.2102     4.6911    48.0515 </r>
       <r>   -16.0993     0.1982    48.0734 </r>
       <r>   -15.9885    -0.4890    48.0192 </r>
       <r>   -15.8776    -0.1532    48.0022 </r>
       <r>   -15.7668    -0.0190    48.0001 </r>
       <r>   -15.6559    -0.0011    48.0000 </r>
       <r>   -15.5450    -0.0000    48.0000 </r>
       <r>   -15.4342    -0.0000    48.0000 </r>
       <r>   -15.3233    -0.0000    48.0000 </r>
       <r>   -15.2125    -0.0000    48.0000 </r>
       <r>   -15.1016    -0.0000    48.0000 </r>
       <r>   -14.9908     0.0000    48.0000 </r>
       <r>   -14.8799     0.0000    48.0000 </r>
       <r>   -14.7690     0.0000    48.0000 </r>
       <r>   -14.6582     0.0000    48.0000 </r>
       <r>   -14.5473     0.0000    48.0000 </r>
       <r>   -14.4365     0.0000    48.0000 </r>
       <r>   -14.3256     0.0000    48.0000 </r>
       <r>   -14.2148     0.0000    48.0000 </r>
       <r>   -14.1039     0.0000    48.0000 </r>
       <r>   -13.9930     0.0000    48.0000 </r>
       <r>   -13.8822     0.0000    48.0000 </r>
       <r>   -13.7713     0.0000    48.0000 </r>
       <r>   -13.6605     0.0000    48.0000 </r>
       <r>   -13.5496     0.0000    48.0000 </r>
       <r>   -13.4388     0.0000    48.0000 </r>
       <r>   -13.3279     0.0000    48.0000 </r>
       <r>   -13.2170     0.0000    48.0000 </r>
       <r>   -13.1062     0.0000    48.0000 </r>
       <r>   -12.9953     0.0000    48.0000 </r>
       <r>   -12.8845     0.0000    48.0000 </r>
       <r>   -12.7736     0.0000    48.0000 </r>
       <r>   -12.6628     0.0000    48.0000 </r>
       <r>   -12.5519     0.0000    48.0000 </r>
       <r>   -12.4410     0.0000    48.0000 </r>
       <r>   -12.3302     0.0000    48.0000 </r>
       <r>   -12.2193     0.0000    48.0000 </r>
       <r>   -12.1085     0.0000    48.0000 </r>
       <r>   -11.9976     0.0000    48.0000 </r>
       <r>   -11.8868     0.0000    48.0000 </r>
       <r>   -11.7759     0.0000    48.0000 </r>
       <r>   -11.6650     0.0000    48.0000 </r>
       <r>   -11.5542     0.0000    48.0000 </r>
       <r>   -11.4433     0.0000    48.0000 </r>
       <r>   -11.3325     0.0000    48.0000 </r>
       <r>   -11.2216     0.0000    48.0000 </r>
       <r>   -11.1107     0.0000    48.0000 </r>
       <r>   -10.9999     0.0000    48.0000 </r>
       <r>   -10.8890     0.0000    48.0000 </r>
       <r>   -10.7782     0.0000    48.0000 </r>
       <r>   -10.6673     0.0000    48.0000 </r>
       <r>   -10.5565     0.0000    48.0000 </r>
       <r>   -10.4456     0.0000    48.0000 </r>
       <r>   -10.3347     0.0000    48.0000 </r>
       <r>   -10.2239     0.0000    48.0000 </r>
       <r>   -10.1130     0.0000    48.0000 </r>
       <r>   -10.0022     0.0000    48.0000 </r>
       <r>    -9.8913     0.0000    48.0000 </r>
       <r>    -9.7805     0.0000    48.0000 </r>
       <r>    -9.6696     0.0000    48.0000 </r>
       <r>    -9.5587     0.0000    48.0000 </r>
       <r>    -9.4479     0.0000    48.0000 </r>
       <r>    -9.3370     0.0000    48.0000 </r>
       <r>    -9.2262     0.0000    48.0000 </r>
       <r>    -9.1153     0.0000    48.0000 </r>
       <r>    -9.0045     0.0000    48.0000 </r>
       <r>    -8.8936     0.0000    48.0000 </r>
       <r>    -8.7827     0.0000    48.0000 </r>
       <r>    -8.6719     0.0000    48.0000 </r>
       <r>    -8.5610     0.0000    48.0000 </r>
       <r>    -8.4502     0.0000    48.0000 </r>
       <r>    -8.3393     0.0000    48.0000 </r>
       <r>    -8.2285     0.0000    48.0000 </r>
       <r>    -8.1176     0.0000    48.0000 </r>
       <r>    -8.0067     0.0000    48.0000 </r>
       <r>    -7.8959    -0.0000    48.0000 </r>
       <r>    -7.7850    -0.0000    48.0000 </r>
       <r>    -7.6742    -0.0000    48.0000 </r>
       <r>    -7.5633    -0.0000    48.0000 </r>
       <r>    -7.4524    -0.0000    48.0000 </r>
       <r>    -7.3416    -0.0000    48.0000 </r>
       <r>    -7.2307    -0.0000    48.0000 </r>
       <r>    -7.1199    -0.0000    48.0000 </r>
       <r>    -7.0090    -0.0000    48.0000 </r>
       <r>    -6.8982    -0.0001    48.0000 </r>
       <r>    -6.7873    -0.0017    47.9998 </r>
       <r>    -6.6764    -0.0267    47.9968 </r>
       <r>    -6.5656    -0.1992    47.9748 </r>
       <r>    -6.4547    -0.5782    47.9107 </r>
       <r>    -6.3439     0.3742    47.9522 </r>
       <r>    -6.2330     5.5990    48.5728 </r>
       <r>    -6.1222    12.6480    49.9750 </r>
       <r>    -6.0113    15.9956    51.7482 </r>
       <r>    -5.9004    17.5077    53.6891 </r>
       <r>    -5.7896    17.9404    55.6779 </r>
       <r>    -5.6787    15.1293    57.3551 </r>
       <r>    -5.5679    15.8979    59.1175 </r>
       <r>    -5.4570    21.8073    61.5350 </r>
       <r>    -5.3462    20.5632    63.8146 </r>
       <r>    -5.2353    13.8863    65.3540 </r>
       <r>    -5.1244    10.9015    66.5625 </r>
       <r>    -5.0136     8.5435    67.5096 </r>
       <r>    -4.9027     5.4020    68.1084 </r>
       <r>    -4.7919     7.1324    68.8991 </r>
       <r>    -4.6810    14.1186    70.4643 </r>
       <r>    -4.5702    24.2307    73.1504 </r>
       <r>    -4.4593    42.3796    77.8485 </r>
       <r>    -4.3484    76.5858    86.3386 </r>
       <r>    -4.2376   104.4599    97.9188 </r>
       <r>    -4.1267    97.3738   108.7134 </r>
       <r>    -4.0159    72.5562   116.7568 </r>
       <r>    -3.9050    46.8698   121.9527 </r>
       <r>    -3.7942    26.4558   124.8855 </r>
       <r>    -3.6833    24.3320   127.5829 </r>
       <r>    -3.5724    38.3967   131.8395 </r>
       <r>    -3.4616    48.4855   137.2145 </r>
       <r>    -3.3507    48.6794   142.6109 </r>
       <r>    -3.2399    52.8042   148.4647 </r>
       <r>    -3.1290    61.2323   155.2527 </r>
       <r>    -3.0181    57.1260   161.5856 </r>
       <r>    -2.9073    42.4150   166.2876 </r>
       <r>    -2.7964    31.2898   169.7563 </r>
       <r>    -2.6856    22.0890   172.2050 </r>
       <r>    -2.5747    12.6010   173.6019 </r>
       <r>    -2.4639     6.5247   174.3253 </r>
       <r>    -2.3530     6.1292   175.0047 </r>
       <r>    -2.2421    11.0914   176.2343 </r>
       <r>    -2.1313    24.2901   178.9270 </r>
       <r>    -2.0204    31.6267   182.4331 </r>
       <r>    -1.9096    23.9841   185.0919 </r>
       <r>    -1.7987    16.4483   186.9153 </r>
       <r>    -1.6879     9.0502   187.9186 </r>
       <r>    -1.5770     1.2106   188.0528 </r>
       <r>    -1.4661     0.1207   188.0662 </r>
       <r>    -1.3553     5.4403   188.6693 </r>
       <r>    -1.2444    10.9782   189.8863 </r>
       <r>    -1.1336    11.5244   191.1639 </r>
       <r>    -1.0227     6.8416   191.9223 </r>
       <r>    -0.9119     1.4591   192.0840 </r>
       <r>    -0.8010    -0.4405   192.0352 </r>
       <r>    -0.6901    -0.2669   192.0056 </r>
       <r>    -0.5793    -0.0468   192.0004 </r>
       <r>    -0.4684    -0.0037   192.0000 </r>
       <r>    -0.3576    -0.0001   192.0000 </r>
       <r>    -0.2467    -0.0000   192.0000 </r>
       <r>    -0.1359    -0.0000   192.0000 </r>
       <r>    -0.0250    -0.0000   192.0000 </r>
       <r>     0.0859    -0.0000   192.0000 </r>
       <r>     0.1967    -0.0009   191.9999 </r>
       <r>     0.3076    -0.0193   191.9978 </r>
       <r>     0.4184    -0.2127   191.9742 </r>
       <r>     0.5293    -1.1570   191.8459 </r>
       <r>     0.6401    -2.3870   191.5813 </r>
       <r>     0.7510     3.7274   191.9945 </r>
       <r>     0.8619    29.6349   195.2798 </r>
       <r>     0.9727    66.8421   202.6897 </r>
       <r>     1.0836    88.6232   212.5143 </r>
       <r>     1.1944    97.4933   223.3221 </r>
       <r>     1.3053   100.8915   234.5067 </r>
       <r>     1.4162    79.8168   243.3550 </r>
       <r>     1.5270    46.4767   248.5073 </r>
       <r>     1.6379    34.4355   252.3247 </r>
       <r>     1.7487    42.1671   256.9992 </r>
       <r>     1.8596    48.0553   262.3265 </r>
       <r>     1.9704    48.1901   267.6688 </r>
       <r>     2.0813    57.6680   274.0617 </r>
       <r>     2.1922    70.3273   281.8580 </r>
       <r>     2.3030    66.6363   289.2451 </r>
       <r>     2.4139    55.6439   295.4137 </r>
       <r>     2.5247    40.3758   299.8896 </r>
       <r>     2.6356    17.7876   301.8615 </r>
       <r>     2.7464     2.8338   302.1757 </r>
       <r>     2.8573     2.2498   302.4251 </r>
       <r>     2.9682     7.7256   303.2815 </r>
       <r>     3.0790    13.0587   304.7292 </r>
       <r>     3.1899    21.7819   307.1439 </r>
       <r>     3.3007    26.7303   310.1071 </r>
       <r>     3.4116    16.2308   311.9064 </r>
       <r>     3.5224     2.7281   312.2089 </r>
       <r>     3.6333    -1.2443   312.0709 </r>
       <r>     3.7442    -0.7378   311.9891 </r>
       <r>     3.8550    -0.4971   311.9340 </r>
       <r>     3.9659     0.7827   312.0208 </r>
       <r>     4.0767     5.2226   312.5998 </r>
       <r>     4.1876     8.0403   313.4911 </r>
       <r>     4.2984     4.3213   313.9701 </r>
       <r>     4.4093     0.2095   313.9933 </r>
       <r>     4.5202     1.8066   314.1936 </r>
       <r>     4.6310     6.5805   314.9231 </r>
       <r>     4.7419     7.5612   315.7613 </r>
       <r>     4.8527     6.7752   316.5124 </r>
       <r>     4.9636     7.8361   317.3811 </r>
       <r>     5.0744     5.2744   317.9658 </r>
       <r>     5.1853     0.9347   318.0694 </r>
       <r>     5.2962    -0.4104   318.0239 </r>
       <r>     5.4070    -0.1865   318.0033 </r>
       <r>     5.5179    -0.0274   318.0002 </r>
       <r>     5.6287    -0.0021   318.0000 </r>
       <r>     5.7396    -0.0062   317.9993 </r>
       <r>     5.8505    -0.0669   317.9919 </r>
       <r>     5.9613    -0.3097   317.9575 </r>
       <r>     6.0722    -0.1924   317.9362 </r>
       <r>     6.1830     2.6160   318.2262 </r>
       <r>     6.2939     7.3283   319.0386 </r>
       <r>     6.4047     7.0391   319.8190 </r>
       <r>     6.5156     2.2454   320.0679 </r>
       <r>     6.6265    -0.2663   320.0384 </r>
       <r>     6.7373    -0.2843   320.0068 </r>
       <r>     6.8482    -0.0565   320.0006 </r>
       <r>     6.9590    -0.0049   320.0000 </r>
       <r>     7.0699    -0.0002   320.0000 </r>
       <r>     7.1807    -0.0000   320.0000 </r>
       <r>     7.2916    -0.0000   320.0000 </r>
       <r>     7.4025    -0.0000   320.0000 </r>
       <r>     7.5133    -0.0000   320.0000 </r>
       <r>     7.6242     0.0000   320.0000 </r>
       <r>     7.7350     0.0000   320.0000 </r>
       <r>     7.8459     0.0000   320.0000 </r>
       <r>     7.9567     0.0000   320.0000 </r>
       <r>     8.0676     0.0000   320.0000 </r>
       <r>     8.1785     0.0000   320.0000 </r>
       <r>     8.2893     0.0000   320.0000 </r>
      </set>
     </set>
    </array>
   </total>
  </dos>
 </calculation>
 <structure name="finalpos" >
  <crystal>
   <varray name="basis" >
    <v>       3.25262800       0.00000000       0.00000000 </v>
    <v>       0.00000000      20.54938400       0.00000000 </v>
    <v>       0.00000000       0.00000000       6.79221100 </v>
   </varray>
   <i name="volume">    453.98799923 </i>
   <varray name="rec_basis" >
    <v>       0.30744370       0.00000000       0.00000000 </v>
    <v>       0.00000000       0.04866326       0.00000000 </v>
    <v>       0.00000000       0.00000000       0.14722746 </v>
   </varray>
  </crystal>
  <varray name="positions" >
   <v>       0.00000000       0.16671900       0.50139100 </v>
   <v>       0.00930900       0.83328100       0.50139100 </v>
   <v>       0.00000000       0.65862500       0.00139100 </v>
   <v>       0.00000000       0.33328100       0.00139100 </v>
   <v>       0.50000000       0.16602100       0.00000400 </v>
   <v>       0.50000000       0.83397900       0.00000400 </v>
   <v>       0.50000000       0.66492700       0.50000400 </v>
   <v>       0.50000000       0.33397900       0.50000400 </v>
   <v>       0.00490700       0.99734200       0.00434600 </v>
   <v>       0.00000000       0.50000000       0.51216200 </v>
   <v>       0.50000000       0.00312000       0.47446600 </v>
   <v>       0.50000000       0.50000000       0.97240000 </v>
   <v>       0.00000000       0.00000000       0.31436200 </v>
   <v>       0.00000000       0.50000000       0.80934300 </v>
   <v>       0.00000000       0.16816900       0.20329900 </v>
   <v>       0.99906800       0.83183100       0.20329900 </v>
   <v>       0.00000000       0.65969100       0.70329900 </v>
   <v>       0.00000000       0.33183100       0.70329900 </v>
   <v>       0.00000000       0.16838200       0.79934600 </v>
   <v>       0.99212800       0.83161800       0.79934600 </v>
   <v>       0.00000000       0.66838200       0.29934600 </v>
   <v>       0.00000000       0.33161800       0.29934600 </v>
   <v>       0.50000000       0.06837200       0.99633700 </v>
   <v>       0.50829400       0.93162800       0.99633700 </v>
   <v>       0.50000000       0.56837200       0.49633700 </v>
   <v>       0.50000000       0.43162800       0.49633700 </v>
   <v>       0.50000000       0.09818400       0.50567900 </v>
   <v>       0.50000000       0.90181600       0.50567900 </v>
   <v>       0.50000000       0.59818400       0.00607700 </v>
   <v>       0.50000000       0.40181600       0.00567900 </v>
   <v>       0.50000000       0.23406000       0.50152500 </v>
   <v>       0.50000000       0.76296000       0.50152500 </v>
   <v>       0.50952300       0.73406000       0.00152500 </v>
   <v>       0.50000000       0.26594000       0.00152500 </v>
   <v>       0.00000000       0.00000000       0.69474100 </v>
   <v>       0.00000000       0.50000000       0.19474100 </v>
  </varray>
 </structure>
</modeling>
